V -t * -v 1.0a5 -a 0
A -t * -n 1 -p 0 -o 0x7fffffff -c 30 -a 1
A -t * -h 1 -m 1073741823 -s 0
n -t * -a 0 -s 0 -S UP -v circle -c black -i black
n -t * -a 1 -s 1 -S UP -v circle -c black -i black
n -t * -a 2 -s 2 -S UP -v circle -c black -i black
n -t * -a 3 -s 3 -S UP -v circle -c black -i black
l -t * -s 0 -d 2 -S UP -r 1000000 -D 0.01 -c black
l -t * -s 1 -d 2 -S UP -r 1000000 -D 0.01 -c black
l -t * -s 2 -d 3 -S UP -r 2000000 -D 0.01 -c black
+ -t 1 -s 1 -d 2 -p cbr -e 210 -c 0 -i 0 -a 0 -x {1.0 3.1 0 ------- null}
- -t 1 -s 1 -d 2 -p cbr -e 210 -c 0 -i 0 -a 0 -x {1.0 3.1 0 ------- null}
h -t 1 -s 1 -d 2 -p cbr -e 210 -c 0 -i 0 -a 0 -x {1.0 3.1 -1 ------- null}
+ -t 1.00375 -s 1 -d 2 -p cbr -e 210 -c 0 -i 1 -a 0 -x {1.0 3.1 1 ------- null}
- -t 1.00375 -s 1 -d 2 -p cbr -e 210 -c 0 -i 1 -a 0 -x {1.0 3.1 1 ------- null}
h -t 1.00375 -s 1 -d 2 -p cbr -e 210 -c 0 -i 1 -a 0 -x {1.0 3.1 -1 ------- null}
+ -t 1.0075 -s 1 -d 2 -p cbr -e 210 -c 0 -i 2 -a 0 -x {1.0 3.1 2 ------- null}
- -t 1.0075 -s 1 -d 2 -p cbr -e 210 -c 0 -i 2 -a 0 -x {1.0 3.1 2 ------- null}
h -t 1.0075 -s 1 -d 2 -p cbr -e 210 -c 0 -i 2 -a 0 -x {1.0 3.1 -1 ------- null}
+ -t 1.01125 -s 1 -d 2 -p cbr -e 210 -c 0 -i 3 -a 0 -x {1.0 3.1 3 ------- null}
- -t 1.01125 -s 1 -d 2 -p cbr -e 210 -c 0 -i 3 -a 0 -x {1.0 3.1 3 ------- null}
h -t 1.01125 -s 1 -d 2 -p cbr -e 210 -c 0 -i 3 -a 0 -x {1.0 3.1 -1 ------- null}
r -t 1.01168 -s 1 -d 2 -p cbr -e 210 -c 0 -i 0 -a 0 -x {1.0 3.1 0 ------- null}
+ -t 1.01168 -s 2 -d 3 -p cbr -e 210 -c 0 -i 0 -a 0 -x {1.0 3.1 0 ------- null}
- -t 1.01168 -s 2 -d 3 -p cbr -e 210 -c 0 -i 0 -a 0 -x {1.0 3.1 0 ------- null}
h -t 1.01168 -s 2 -d 3 -p cbr -e 210 -c 0 -i 0 -a 0 -x {1.0 3.1 -1 ------- null}
+ -t 1.015 -s 1 -d 2 -p cbr -e 210 -c 0 -i 4 -a 0 -x {1.0 3.1 4 ------- null}
- -t 1.015 -s 1 -d 2 -p cbr -e 210 -c 0 -i 4 -a 0 -x {1.0 3.1 4 ------- null}
h -t 1.015 -s 1 -d 2 -p cbr -e 210 -c 0 -i 4 -a 0 -x {1.0 3.1 -1 ------- null}
r -t 1.01543 -s 1 -d 2 -p cbr -e 210 -c 0 -i 1 -a 0 -x {1.0 3.1 1 ------- null}
+ -t 1.01543 -s 2 -d 3 -p cbr -e 210 -c 0 -i 1 -a 0 -x {1.0 3.1 1 ------- null}
- -t 1.01543 -s 2 -d 3 -p cbr -e 210 -c 0 -i 1 -a 0 -x {1.0 3.1 1 ------- null}
h -t 1.01543 -s 2 -d 3 -p cbr -e 210 -c 0 -i 1 -a 0 -x {1.0 3.1 -1 ------- null}
+ -t 1.01875 -s 1 -d 2 -p cbr -e 210 -c 0 -i 5 -a 0 -x {1.0 3.1 5 ------- null}
- -t 1.01875 -s 1 -d 2 -p cbr -e 210 -c 0 -i 5 -a 0 -x {1.0 3.1 5 ------- null}
h -t 1.01875 -s 1 -d 2 -p cbr -e 210 -c 0 -i 5 -a 0 -x {1.0 3.1 -1 ------- null}
r -t 1.01918 -s 1 -d 2 -p cbr -e 210 -c 0 -i 2 -a 0 -x {1.0 3.1 2 ------- null}
+ -t 1.01918 -s 2 -d 3 -p cbr -e 210 -c 0 -i 2 -a 0 -x {1.0 3.1 2 ------- null}
- -t 1.01918 -s 2 -d 3 -p cbr -e 210 -c 0 -i 2 -a 0 -x {1.0 3.1 2 ------- null}
h -t 1.01918 -s 2 -d 3 -p cbr -e 210 -c 0 -i 2 -a 0 -x {1.0 3.1 -1 ------- null}
+ -t 1.0225 -s 1 -d 2 -p cbr -e 210 -c 0 -i 6 -a 0 -x {1.0 3.1 6 ------- null}
- -t 1.0225 -s 1 -d 2 -p cbr -e 210 -c 0 -i 6 -a 0 -x {1.0 3.1 6 ------- null}
h -t 1.0225 -s 1 -d 2 -p cbr -e 210 -c 0 -i 6 -a 0 -x {1.0 3.1 -1 ------- null}
r -t 1.02252 -s 2 -d 3 -p cbr -e 210 -c 0 -i 0 -a 0 -x {1.0 3.1 0 ------- null}
r -t 1.02293 -s 1 -d 2 -p cbr -e 210 -c 0 -i 3 -a 0 -x {1.0 3.1 3 ------- null}
+ -t 1.02293 -s 2 -d 3 -p cbr -e 210 -c 0 -i 3 -a 0 -x {1.0 3.1 3 ------- null}
- -t 1.02293 -s 2 -d 3 -p cbr -e 210 -c 0 -i 3 -a 0 -x {1.0 3.1 3 ------- null}
h -t 1.02293 -s 2 -d 3 -p cbr -e 210 -c 0 -i 3 -a 0 -x {1.0 3.1 -1 ------- null}
+ -t 1.02625 -s 1 -d 2 -p cbr -e 210 -c 0 -i 7 -a 0 -x {1.0 3.1 7 ------- null}
- -t 1.02625 -s 1 -d 2 -p cbr -e 210 -c 0 -i 7 -a 0 -x {1.0 3.1 7 ------- null}
h -t 1.02625 -s 1 -d 2 -p cbr -e 210 -c 0 -i 7 -a 0 -x {1.0 3.1 -1 ------- null}
r -t 1.02627 -s 2 -d 3 -p cbr -e 210 -c 0 -i 1 -a 0 -x {1.0 3.1 1 ------- null}
r -t 1.02668 -s 1 -d 2 -p cbr -e 210 -c 0 -i 4 -a 0 -x {1.0 3.1 4 ------- null}
+ -t 1.02668 -s 2 -d 3 -p cbr -e 210 -c 0 -i 4 -a 0 -x {1.0 3.1 4 ------- null}
- -t 1.02668 -s 2 -d 3 -p cbr -e 210 -c 0 -i 4 -a 0 -x {1.0 3.1 4 ------- null}
h -t 1.02668 -s 2 -d 3 -p cbr -e 210 -c 0 -i 4 -a 0 -x {1.0 3.1 -1 ------- null}
+ -t 1.03 -s 1 -d 2 -p cbr -e 210 -c 0 -i 8 -a 0 -x {1.0 3.1 8 ------- null}
- -t 1.03 -s 1 -d 2 -p cbr -e 210 -c 0 -i 8 -a 0 -x {1.0 3.1 8 ------- null}
h -t 1.03 -s 1 -d 2 -p cbr -e 210 -c 0 -i 8 -a 0 -x {1.0 3.1 -1 ------- null}
r -t 1.03002 -s 2 -d 3 -p cbr -e 210 -c 0 -i 2 -a 0 -x {1.0 3.1 2 ------- null}
r -t 1.03043 -s 1 -d 2 -p cbr -e 210 -c 0 -i 5 -a 0 -x {1.0 3.1 5 ------- null}
+ -t 1.03043 -s 2 -d 3 -p cbr -e 210 -c 0 -i 5 -a 0 -x {1.0 3.1 5 ------- null}
- -t 1.03043 -s 2 -d 3 -p cbr -e 210 -c 0 -i 5 -a 0 -x {1.0 3.1 5 ------- null}
h -t 1.03043 -s 2 -d 3 -p cbr -e 210 -c 0 -i 5 -a 0 -x {1.0 3.1 -1 ------- null}
+ -t 1.03375 -s 1 -d 2 -p cbr -e 210 -c 0 -i 9 -a 0 -x {1.0 3.1 9 ------- null}
- -t 1.03375 -s 1 -d 2 -p cbr -e 210 -c 0 -i 9 -a 0 -x {1.0 3.1 9 ------- null}
h -t 1.03375 -s 1 -d 2 -p cbr -e 210 -c 0 -i 9 -a 0 -x {1.0 3.1 -1 ------- null}
r -t 1.03377 -s 2 -d 3 -p cbr -e 210 -c 0 -i 3 -a 0 -x {1.0 3.1 3 ------- null}
r -t 1.03418 -s 1 -d 2 -p cbr -e 210 -c 0 -i 6 -a 0 -x {1.0 3.1 6 ------- null}
+ -t 1.03418 -s 2 -d 3 -p cbr -e 210 -c 0 -i 6 -a 0 -x {1.0 3.1 6 ------- null}
- -t 1.03418 -s 2 -d 3 -p cbr -e 210 -c 0 -i 6 -a 0 -x {1.0 3.1 6 ------- null}
h -t 1.03418 -s 2 -d 3 -p cbr -e 210 -c 0 -i 6 -a 0 -x {1.0 3.1 -1 ------- null}
+ -t 1.0375 -s 1 -d 2 -p cbr -e 210 -c 0 -i 10 -a 0 -x {1.0 3.1 10 ------- null}
- -t 1.0375 -s 1 -d 2 -p cbr -e 210 -c 0 -i 10 -a 0 -x {1.0 3.1 10 ------- null}
h -t 1.0375 -s 1 -d 2 -p cbr -e 210 -c 0 -i 10 -a 0 -x {1.0 3.1 -1 ------- null}
r -t 1.03752 -s 2 -d 3 -p cbr -e 210 -c 0 -i 4 -a 0 -x {1.0 3.1 4 ------- null}
r -t 1.03793 -s 1 -d 2 -p cbr -e 210 -c 0 -i 7 -a 0 -x {1.0 3.1 7 ------- null}
+ -t 1.03793 -s 2 -d 3 -p cbr -e 210 -c 0 -i 7 -a 0 -x {1.0 3.1 7 ------- null}
- -t 1.03793 -s 2 -d 3 -p cbr -e 210 -c 0 -i 7 -a 0 -x {1.0 3.1 7 ------- null}
h -t 1.03793 -s 2 -d 3 -p cbr -e 210 -c 0 -i 7 -a 0 -x {1.0 3.1 -1 ------- null}
+ -t 1.04125 -s 1 -d 2 -p cbr -e 210 -c 0 -i 11 -a 0 -x {1.0 3.1 11 ------- null}
- -t 1.04125 -s 1 -d 2 -p cbr -e 210 -c 0 -i 11 -a 0 -x {1.0 3.1 11 ------- null}
h -t 1.04125 -s 1 -d 2 -p cbr -e 210 -c 0 -i 11 -a 0 -x {1.0 3.1 -1 ------- null}
r -t 1.04127 -s 2 -d 3 -p cbr -e 210 -c 0 -i 5 -a 0 -x {1.0 3.1 5 ------- null}
r -t 1.04168 -s 1 -d 2 -p cbr -e 210 -c 0 -i 8 -a 0 -x {1.0 3.1 8 ------- null}
+ -t 1.04168 -s 2 -d 3 -p cbr -e 210 -c 0 -i 8 -a 0 -x {1.0 3.1 8 ------- null}
- -t 1.04168 -s 2 -d 3 -p cbr -e 210 -c 0 -i 8 -a 0 -x {1.0 3.1 8 ------- null}
h -t 1.04168 -s 2 -d 3 -p cbr -e 210 -c 0 -i 8 -a 0 -x {1.0 3.1 -1 ------- null}
+ -t 1.045 -s 1 -d 2 -p cbr -e 210 -c 0 -i 12 -a 0 -x {1.0 3.1 12 ------- null}
- -t 1.045 -s 1 -d 2 -p cbr -e 210 -c 0 -i 12 -a 0 -x {1.0 3.1 12 ------- null}
h -t 1.045 -s 1 -d 2 -p cbr -e 210 -c 0 -i 12 -a 0 -x {1.0 3.1 -1 ------- null}
r -t 1.04502 -s 2 -d 3 -p cbr -e 210 -c 0 -i 6 -a 0 -x {1.0 3.1 6 ------- null}
r -t 1.04543 -s 1 -d 2 -p cbr -e 210 -c 0 -i 9 -a 0 -x {1.0 3.1 9 ------- null}
+ -t 1.04543 -s 2 -d 3 -p cbr -e 210 -c 0 -i 9 -a 0 -x {1.0 3.1 9 ------- null}
- -t 1.04543 -s 2 -d 3 -p cbr -e 210 -c 0 -i 9 -a 0 -x {1.0 3.1 9 ------- null}
h -t 1.04543 -s 2 -d 3 -p cbr -e 210 -c 0 -i 9 -a 0 -x {1.0 3.1 -1 ------- null}
+ -t 1.04875 -s 1 -d 2 -p cbr -e 210 -c 0 -i 13 -a 0 -x {1.0 3.1 13 ------- null}
- -t 1.04875 -s 1 -d 2 -p cbr -e 210 -c 0 -i 13 -a 0 -x {1.0 3.1 13 ------- null}
h -t 1.04875 -s 1 -d 2 -p cbr -e 210 -c 0 -i 13 -a 0 -x {1.0 3.1 -1 ------- null}
r -t 1.04877 -s 2 -d 3 -p cbr -e 210 -c 0 -i 7 -a 0 -x {1.0 3.1 7 ------- null}
r -t 1.04918 -s 1 -d 2 -p cbr -e 210 -c 0 -i 10 -a 0 -x {1.0 3.1 10 ------- null}
+ -t 1.04918 -s 2 -d 3 -p cbr -e 210 -c 0 -i 10 -a 0 -x {1.0 3.1 10 ------- null}
- -t 1.04918 -s 2 -d 3 -p cbr -e 210 -c 0 -i 10 -a 0 -x {1.0 3.1 10 ------- null}
h -t 1.04918 -s 2 -d 3 -p cbr -e 210 -c 0 -i 10 -a 0 -x {1.0 3.1 -1 ------- null}
+ -t 1.0525 -s 1 -d 2 -p cbr -e 210 -c 0 -i 14 -a 0 -x {1.0 3.1 14 ------- null}
- -t 1.0525 -s 1 -d 2 -p cbr -e 210 -c 0 -i 14 -a 0 -x {1.0 3.1 14 ------- null}
h -t 1.0525 -s 1 -d 2 -p cbr -e 210 -c 0 -i 14 -a 0 -x {1.0 3.1 -1 ------- null}
r -t 1.05252 -s 2 -d 3 -p cbr -e 210 -c 0 -i 8 -a 0 -x {1.0 3.1 8 ------- null}
r -t 1.05293 -s 1 -d 2 -p cbr -e 210 -c 0 -i 11 -a 0 -x {1.0 3.1 11 ------- null}
+ -t 1.05293 -s 2 -d 3 -p cbr -e 210 -c 0 -i 11 -a 0 -x {1.0 3.1 11 ------- null}
- -t 1.05293 -s 2 -d 3 -p cbr -e 210 -c 0 -i 11 -a 0 -x {1.0 3.1 11 ------- null}
h -t 1.05293 -s 2 -d 3 -p cbr -e 210 -c 0 -i 11 -a 0 -x {1.0 3.1 -1 ------- null}
+ -t 1.05625 -s 1 -d 2 -p cbr -e 210 -c 0 -i 15 -a 0 -x {1.0 3.1 15 ------- null}
- -t 1.05625 -s 1 -d 2 -p cbr -e 210 -c 0 -i 15 -a 0 -x {1.0 3.1 15 ------- null}
h -t 1.05625 -s 1 -d 2 -p cbr -e 210 -c 0 -i 15 -a 0 -x {1.0 3.1 -1 ------- null}
r -t 1.05627 -s 2 -d 3 -p cbr -e 210 -c 0 -i 9 -a 0 -x {1.0 3.1 9 ------- null}
r -t 1.05668 -s 1 -d 2 -p cbr -e 210 -c 0 -i 12 -a 0 -x {1.0 3.1 12 ------- null}
+ -t 1.05668 -s 2 -d 3 -p cbr -e 210 -c 0 -i 12 -a 0 -x {1.0 3.1 12 ------- null}
- -t 1.05668 -s 2 -d 3 -p cbr -e 210 -c 0 -i 12 -a 0 -x {1.0 3.1 12 ------- null}
h -t 1.05668 -s 2 -d 3 -p cbr -e 210 -c 0 -i 12 -a 0 -x {1.0 3.1 -1 ------- null}
+ -t 1.06 -s 1 -d 2 -p cbr -e 210 -c 0 -i 16 -a 0 -x {1.0 3.1 16 ------- null}
- -t 1.06 -s 1 -d 2 -p cbr -e 210 -c 0 -i 16 -a 0 -x {1.0 3.1 16 ------- null}
h -t 1.06 -s 1 -d 2 -p cbr -e 210 -c 0 -i 16 -a 0 -x {1.0 3.1 -1 ------- null}
r -t 1.06002 -s 2 -d 3 -p cbr -e 210 -c 0 -i 10 -a 0 -x {1.0 3.1 10 ------- null}
r -t 1.06043 -s 1 -d 2 -p cbr -e 210 -c 0 -i 13 -a 0 -x {1.0 3.1 13 ------- null}
+ -t 1.06043 -s 2 -d 3 -p cbr -e 210 -c 0 -i 13 -a 0 -x {1.0 3.1 13 ------- null}
- -t 1.06043 -s 2 -d 3 -p cbr -e 210 -c 0 -i 13 -a 0 -x {1.0 3.1 13 ------- null}
h -t 1.06043 -s 2 -d 3 -p cbr -e 210 -c 0 -i 13 -a 0 -x {1.0 3.1 -1 ------- null}
+ -t 1.06375 -s 1 -d 2 -p cbr -e 210 -c 0 -i 17 -a 0 -x {1.0 3.1 17 ------- null}
- -t 1.06375 -s 1 -d 2 -p cbr -e 210 -c 0 -i 17 -a 0 -x {1.0 3.1 17 ------- null}
h -t 1.06375 -s 1 -d 2 -p cbr -e 210 -c 0 -i 17 -a 0 -x {1.0 3.1 -1 ------- null}
r -t 1.06377 -s 2 -d 3 -p cbr -e 210 -c 0 -i 11 -a 0 -x {1.0 3.1 11 ------- null}
r -t 1.06418 -s 1 -d 2 -p cbr -e 210 -c 0 -i 14 -a 0 -x {1.0 3.1 14 ------- null}
+ -t 1.06418 -s 2 -d 3 -p cbr -e 210 -c 0 -i 14 -a 0 -x {1.0 3.1 14 ------- null}
- -t 1.06418 -s 2 -d 3 -p cbr -e 210 -c 0 -i 14 -a 0 -x {1.0 3.1 14 ------- null}
h -t 1.06418 -s 2 -d 3 -p cbr -e 210 -c 0 -i 14 -a 0 -x {1.0 3.1 -1 ------- null}
+ -t 1.0675 -s 1 -d 2 -p cbr -e 210 -c 0 -i 18 -a 0 -x {1.0 3.1 18 ------- null}
- -t 1.0675 -s 1 -d 2 -p cbr -e 210 -c 0 -i 18 -a 0 -x {1.0 3.1 18 ------- null}
h -t 1.0675 -s 1 -d 2 -p cbr -e 210 -c 0 -i 18 -a 0 -x {1.0 3.1 -1 ------- null}
r -t 1.06752 -s 2 -d 3 -p cbr -e 210 -c 0 -i 12 -a 0 -x {1.0 3.1 12 ------- null}
r -t 1.06793 -s 1 -d 2 -p cbr -e 210 -c 0 -i 15 -a 0 -x {1.0 3.1 15 ------- null}
+ -t 1.06793 -s 2 -d 3 -p cbr -e 210 -c 0 -i 15 -a 0 -x {1.0 3.1 15 ------- null}
- -t 1.06793 -s 2 -d 3 -p cbr -e 210 -c 0 -i 15 -a 0 -x {1.0 3.1 15 ------- null}
h -t 1.06793 -s 2 -d 3 -p cbr -e 210 -c 0 -i 15 -a 0 -x {1.0 3.1 -1 ------- null}
+ -t 1.07125 -s 1 -d 2 -p cbr -e 210 -c 0 -i 19 -a 0 -x {1.0 3.1 19 ------- null}
- -t 1.07125 -s 1 -d 2 -p cbr -e 210 -c 0 -i 19 -a 0 -x {1.0 3.1 19 ------- null}
h -t 1.07125 -s 1 -d 2 -p cbr -e 210 -c 0 -i 19 -a 0 -x {1.0 3.1 -1 ------- null}
r -t 1.07127 -s 2 -d 3 -p cbr -e 210 -c 0 -i 13 -a 0 -x {1.0 3.1 13 ------- null}
r -t 1.07168 -s 1 -d 2 -p cbr -e 210 -c 0 -i 16 -a 0 -x {1.0 3.1 16 ------- null}
+ -t 1.07168 -s 2 -d 3 -p cbr -e 210 -c 0 -i 16 -a 0 -x {1.0 3.1 16 ------- null}
- -t 1.07168 -s 2 -d 3 -p cbr -e 210 -c 0 -i 16 -a 0 -x {1.0 3.1 16 ------- null}
h -t 1.07168 -s 2 -d 3 -p cbr -e 210 -c 0 -i 16 -a 0 -x {1.0 3.1 -1 ------- null}
+ -t 1.075 -s 1 -d 2 -p cbr -e 210 -c 0 -i 20 -a 0 -x {1.0 3.1 20 ------- null}
- -t 1.075 -s 1 -d 2 -p cbr -e 210 -c 0 -i 20 -a 0 -x {1.0 3.1 20 ------- null}
h -t 1.075 -s 1 -d 2 -p cbr -e 210 -c 0 -i 20 -a 0 -x {1.0 3.1 -1 ------- null}
r -t 1.07502 -s 2 -d 3 -p cbr -e 210 -c 0 -i 14 -a 0 -x {1.0 3.1 14 ------- null}
r -t 1.07543 -s 1 -d 2 -p cbr -e 210 -c 0 -i 17 -a 0 -x {1.0 3.1 17 ------- null}
+ -t 1.07543 -s 2 -d 3 -p cbr -e 210 -c 0 -i 17 -a 0 -x {1.0 3.1 17 ------- null}
- -t 1.07543 -s 2 -d 3 -p cbr -e 210 -c 0 -i 17 -a 0 -x {1.0 3.1 17 ------- null}
h -t 1.07543 -s 2 -d 3 -p cbr -e 210 -c 0 -i 17 -a 0 -x {1.0 3.1 -1 ------- null}
+ -t 1.07875 -s 1 -d 2 -p cbr -e 210 -c 0 -i 21 -a 0 -x {1.0 3.1 21 ------- null}
- -t 1.07875 -s 1 -d 2 -p cbr -e 210 -c 0 -i 21 -a 0 -x {1.0 3.1 21 ------- null}
h -t 1.07875 -s 1 -d 2 -p cbr -e 210 -c 0 -i 21 -a 0 -x {1.0 3.1 -1 ------- null}
r -t 1.07877 -s 2 -d 3 -p cbr -e 210 -c 0 -i 15 -a 0 -x {1.0 3.1 15 ------- null}
r -t 1.07918 -s 1 -d 2 -p cbr -e 210 -c 0 -i 18 -a 0 -x {1.0 3.1 18 ------- null}
+ -t 1.07918 -s 2 -d 3 -p cbr -e 210 -c 0 -i 18 -a 0 -x {1.0 3.1 18 ------- null}
- -t 1.07918 -s 2 -d 3 -p cbr -e 210 -c 0 -i 18 -a 0 -x {1.0 3.1 18 ------- null}
h -t 1.07918 -s 2 -d 3 -p cbr -e 210 -c 0 -i 18 -a 0 -x {1.0 3.1 -1 ------- null}
+ -t 1.0825 -s 1 -d 2 -p cbr -e 210 -c 0 -i 22 -a 0 -x {1.0 3.1 22 ------- null}
- -t 1.0825 -s 1 -d 2 -p cbr -e 210 -c 0 -i 22 -a 0 -x {1.0 3.1 22 ------- null}
h -t 1.0825 -s 1 -d 2 -p cbr -e 210 -c 0 -i 22 -a 0 -x {1.0 3.1 -1 ------- null}
r -t 1.08252 -s 2 -d 3 -p cbr -e 210 -c 0 -i 16 -a 0 -x {1.0 3.1 16 ------- null}
r -t 1.08293 -s 1 -d 2 -p cbr -e 210 -c 0 -i 19 -a 0 -x {1.0 3.1 19 ------- null}
+ -t 1.08293 -s 2 -d 3 -p cbr -e 210 -c 0 -i 19 -a 0 -x {1.0 3.1 19 ------- null}
- -t 1.08293 -s 2 -d 3 -p cbr -e 210 -c 0 -i 19 -a 0 -x {1.0 3.1 19 ------- null}
h -t 1.08293 -s 2 -d 3 -p cbr -e 210 -c 0 -i 19 -a 0 -x {1.0 3.1 -1 ------- null}
+ -t 1.08625 -s 1 -d 2 -p cbr -e 210 -c 0 -i 23 -a 0 -x {1.0 3.1 23 ------- null}
- -t 1.08625 -s 1 -d 2 -p cbr -e 210 -c 0 -i 23 -a 0 -x {1.0 3.1 23 ------- null}
h -t 1.08625 -s 1 -d 2 -p cbr -e 210 -c 0 -i 23 -a 0 -x {1.0 3.1 -1 ------- null}
r -t 1.08627 -s 2 -d 3 -p cbr -e 210 -c 0 -i 17 -a 0 -x {1.0 3.1 17 ------- null}
r -t 1.08668 -s 1 -d 2 -p cbr -e 210 -c 0 -i 20 -a 0 -x {1.0 3.1 20 ------- null}
+ -t 1.08668 -s 2 -d 3 -p cbr -e 210 -c 0 -i 20 -a 0 -x {1.0 3.1 20 ------- null}
- -t 1.08668 -s 2 -d 3 -p cbr -e 210 -c 0 -i 20 -a 0 -x {1.0 3.1 20 ------- null}
h -t 1.08668 -s 2 -d 3 -p cbr -e 210 -c 0 -i 20 -a 0 -x {1.0 3.1 -1 ------- null}
+ -t 1.09 -s 1 -d 2 -p cbr -e 210 -c 0 -i 24 -a 0 -x {1.0 3.1 24 ------- null}
- -t 1.09 -s 1 -d 2 -p cbr -e 210 -c 0 -i 24 -a 0 -x {1.0 3.1 24 ------- null}
h -t 1.09 -s 1 -d 2 -p cbr -e 210 -c 0 -i 24 -a 0 -x {1.0 3.1 -1 ------- null}
r -t 1.09002 -s 2 -d 3 -p cbr -e 210 -c 0 -i 18 -a 0 -x {1.0 3.1 18 ------- null}
r -t 1.09043 -s 1 -d 2 -p cbr -e 210 -c 0 -i 21 -a 0 -x {1.0 3.1 21 ------- null}
+ -t 1.09043 -s 2 -d 3 -p cbr -e 210 -c 0 -i 21 -a 0 -x {1.0 3.1 21 ------- null}
- -t 1.09043 -s 2 -d 3 -p cbr -e 210 -c 0 -i 21 -a 0 -x {1.0 3.1 21 ------- null}
h -t 1.09043 -s 2 -d 3 -p cbr -e 210 -c 0 -i 21 -a 0 -x {1.0 3.1 -1 ------- null}
+ -t 1.09375 -s 1 -d 2 -p cbr -e 210 -c 0 -i 25 -a 0 -x {1.0 3.1 25 ------- null}
- -t 1.09375 -s 1 -d 2 -p cbr -e 210 -c 0 -i 25 -a 0 -x {1.0 3.1 25 ------- null}
h -t 1.09375 -s 1 -d 2 -p cbr -e 210 -c 0 -i 25 -a 0 -x {1.0 3.1 -1 ------- null}
r -t 1.09377 -s 2 -d 3 -p cbr -e 210 -c 0 -i 19 -a 0 -x {1.0 3.1 19 ------- null}
r -t 1.09418 -s 1 -d 2 -p cbr -e 210 -c 0 -i 22 -a 0 -x {1.0 3.1 22 ------- null}
+ -t 1.09418 -s 2 -d 3 -p cbr -e 210 -c 0 -i 22 -a 0 -x {1.0 3.1 22 ------- null}
- -t 1.09418 -s 2 -d 3 -p cbr -e 210 -c 0 -i 22 -a 0 -x {1.0 3.1 22 ------- null}
h -t 1.09418 -s 2 -d 3 -p cbr -e 210 -c 0 -i 22 -a 0 -x {1.0 3.1 -1 ------- null}
+ -t 1.0975 -s 1 -d 2 -p cbr -e 210 -c 0 -i 26 -a 0 -x {1.0 3.1 26 ------- null}
- -t 1.0975 -s 1 -d 2 -p cbr -e 210 -c 0 -i 26 -a 0 -x {1.0 3.1 26 ------- null}
h -t 1.0975 -s 1 -d 2 -p cbr -e 210 -c 0 -i 26 -a 0 -x {1.0 3.1 -1 ------- null}
r -t 1.09752 -s 2 -d 3 -p cbr -e 210 -c 0 -i 20 -a 0 -x {1.0 3.1 20 ------- null}
r -t 1.09793 -s 1 -d 2 -p cbr -e 210 -c 0 -i 23 -a 0 -x {1.0 3.1 23 ------- null}
+ -t 1.09793 -s 2 -d 3 -p cbr -e 210 -c 0 -i 23 -a 0 -x {1.0 3.1 23 ------- null}
- -t 1.09793 -s 2 -d 3 -p cbr -e 210 -c 0 -i 23 -a 0 -x {1.0 3.1 23 ------- null}
h -t 1.09793 -s 2 -d 3 -p cbr -e 210 -c 0 -i 23 -a 0 -x {1.0 3.1 -1 ------- null}
+ -t 1.10125 -s 1 -d 2 -p cbr -e 210 -c 0 -i 27 -a 0 -x {1.0 3.1 27 ------- null}
- -t 1.10125 -s 1 -d 2 -p cbr -e 210 -c 0 -i 27 -a 0 -x {1.0 3.1 27 ------- null}
h -t 1.10125 -s 1 -d 2 -p cbr -e 210 -c 0 -i 27 -a 0 -x {1.0 3.1 -1 ------- null}
r -t 1.10127 -s 2 -d 3 -p cbr -e 210 -c 0 -i 21 -a 0 -x {1.0 3.1 21 ------- null}
r -t 1.10168 -s 1 -d 2 -p cbr -e 210 -c 0 -i 24 -a 0 -x {1.0 3.1 24 ------- null}
+ -t 1.10168 -s 2 -d 3 -p cbr -e 210 -c 0 -i 24 -a 0 -x {1.0 3.1 24 ------- null}
- -t 1.10168 -s 2 -d 3 -p cbr -e 210 -c 0 -i 24 -a 0 -x {1.0 3.1 24 ------- null}
h -t 1.10168 -s 2 -d 3 -p cbr -e 210 -c 0 -i 24 -a 0 -x {1.0 3.1 -1 ------- null}
+ -t 1.105 -s 1 -d 2 -p cbr -e 210 -c 0 -i 28 -a 0 -x {1.0 3.1 28 ------- null}
- -t 1.105 -s 1 -d 2 -p cbr -e 210 -c 0 -i 28 -a 0 -x {1.0 3.1 28 ------- null}
h -t 1.105 -s 1 -d 2 -p cbr -e 210 -c 0 -i 28 -a 0 -x {1.0 3.1 -1 ------- null}
r -t 1.10502 -s 2 -d 3 -p cbr -e 210 -c 0 -i 22 -a 0 -x {1.0 3.1 22 ------- null}
r -t 1.10543 -s 1 -d 2 -p cbr -e 210 -c 0 -i 25 -a 0 -x {1.0 3.1 25 ------- null}
+ -t 1.10543 -s 2 -d 3 -p cbr -e 210 -c 0 -i 25 -a 0 -x {1.0 3.1 25 ------- null}
- -t 1.10543 -s 2 -d 3 -p cbr -e 210 -c 0 -i 25 -a 0 -x {1.0 3.1 25 ------- null}
h -t 1.10543 -s 2 -d 3 -p cbr -e 210 -c 0 -i 25 -a 0 -x {1.0 3.1 -1 ------- null}
+ -t 1.10875 -s 1 -d 2 -p cbr -e 210 -c 0 -i 29 -a 0 -x {1.0 3.1 29 ------- null}
- -t 1.10875 -s 1 -d 2 -p cbr -e 210 -c 0 -i 29 -a 0 -x {1.0 3.1 29 ------- null}
h -t 1.10875 -s 1 -d 2 -p cbr -e 210 -c 0 -i 29 -a 0 -x {1.0 3.1 -1 ------- null}
r -t 1.10877 -s 2 -d 3 -p cbr -e 210 -c 0 -i 23 -a 0 -x {1.0 3.1 23 ------- null}
r -t 1.10918 -s 1 -d 2 -p cbr -e 210 -c 0 -i 26 -a 0 -x {1.0 3.1 26 ------- null}
+ -t 1.10918 -s 2 -d 3 -p cbr -e 210 -c 0 -i 26 -a 0 -x {1.0 3.1 26 ------- null}
- -t 1.10918 -s 2 -d 3 -p cbr -e 210 -c 0 -i 26 -a 0 -x {1.0 3.1 26 ------- null}
h -t 1.10918 -s 2 -d 3 -p cbr -e 210 -c 0 -i 26 -a 0 -x {1.0 3.1 -1 ------- null}
+ -t 1.1125 -s 1 -d 2 -p cbr -e 210 -c 0 -i 30 -a 0 -x {1.0 3.1 30 ------- null}
- -t 1.1125 -s 1 -d 2 -p cbr -e 210 -c 0 -i 30 -a 0 -x {1.0 3.1 30 ------- null}
h -t 1.1125 -s 1 -d 2 -p cbr -e 210 -c 0 -i 30 -a 0 -x {1.0 3.1 -1 ------- null}
r -t 1.11252 -s 2 -d 3 -p cbr -e 210 -c 0 -i 24 -a 0 -x {1.0 3.1 24 ------- null}
r -t 1.11293 -s 1 -d 2 -p cbr -e 210 -c 0 -i 27 -a 0 -x {1.0 3.1 27 ------- null}
+ -t 1.11293 -s 2 -d 3 -p cbr -e 210 -c 0 -i 27 -a 0 -x {1.0 3.1 27 ------- null}
- -t 1.11293 -s 2 -d 3 -p cbr -e 210 -c 0 -i 27 -a 0 -x {1.0 3.1 27 ------- null}
h -t 1.11293 -s 2 -d 3 -p cbr -e 210 -c 0 -i 27 -a 0 -x {1.0 3.1 -1 ------- null}
+ -t 1.11625 -s 1 -d 2 -p cbr -e 210 -c 0 -i 31 -a 0 -x {1.0 3.1 31 ------- null}
- -t 1.11625 -s 1 -d 2 -p cbr -e 210 -c 0 -i 31 -a 0 -x {1.0 3.1 31 ------- null}
h -t 1.11625 -s 1 -d 2 -p cbr -e 210 -c 0 -i 31 -a 0 -x {1.0 3.1 -1 ------- null}
r -t 1.11627 -s 2 -d 3 -p cbr -e 210 -c 0 -i 25 -a 0 -x {1.0 3.1 25 ------- null}
r -t 1.11668 -s 1 -d 2 -p cbr -e 210 -c 0 -i 28 -a 0 -x {1.0 3.1 28 ------- null}
+ -t 1.11668 -s 2 -d 3 -p cbr -e 210 -c 0 -i 28 -a 0 -x {1.0 3.1 28 ------- null}
- -t 1.11668 -s 2 -d 3 -p cbr -e 210 -c 0 -i 28 -a 0 -x {1.0 3.1 28 ------- null}
h -t 1.11668 -s 2 -d 3 -p cbr -e 210 -c 0 -i 28 -a 0 -x {1.0 3.1 -1 ------- null}
+ -t 1.12 -s 1 -d 2 -p cbr -e 210 -c 0 -i 32 -a 0 -x {1.0 3.1 32 ------- null}
- -t 1.12 -s 1 -d 2 -p cbr -e 210 -c 0 -i 32 -a 0 -x {1.0 3.1 32 ------- null}
h -t 1.12 -s 1 -d 2 -p cbr -e 210 -c 0 -i 32 -a 0 -x {1.0 3.1 -1 ------- null}
r -t 1.12002 -s 2 -d 3 -p cbr -e 210 -c 0 -i 26 -a 0 -x {1.0 3.1 26 ------- null}
r -t 1.12043 -s 1 -d 2 -p cbr -e 210 -c 0 -i 29 -a 0 -x {1.0 3.1 29 ------- null}
+ -t 1.12043 -s 2 -d 3 -p cbr -e 210 -c 0 -i 29 -a 0 -x {1.0 3.1 29 ------- null}
- -t 1.12043 -s 2 -d 3 -p cbr -e 210 -c 0 -i 29 -a 0 -x {1.0 3.1 29 ------- null}
h -t 1.12043 -s 2 -d 3 -p cbr -e 210 -c 0 -i 29 -a 0 -x {1.0 3.1 -1 ------- null}
+ -t 1.12375 -s 1 -d 2 -p cbr -e 210 -c 0 -i 33 -a 0 -x {1.0 3.1 33 ------- null}
- -t 1.12375 -s 1 -d 2 -p cbr -e 210 -c 0 -i 33 -a 0 -x {1.0 3.1 33 ------- null}
h -t 1.12375 -s 1 -d 2 -p cbr -e 210 -c 0 -i 33 -a 0 -x {1.0 3.1 -1 ------- null}
r -t 1.12377 -s 2 -d 3 -p cbr -e 210 -c 0 -i 27 -a 0 -x {1.0 3.1 27 ------- null}
r -t 1.12418 -s 1 -d 2 -p cbr -e 210 -c 0 -i 30 -a 0 -x {1.0 3.1 30 ------- null}
+ -t 1.12418 -s 2 -d 3 -p cbr -e 210 -c 0 -i 30 -a 0 -x {1.0 3.1 30 ------- null}
- -t 1.12418 -s 2 -d 3 -p cbr -e 210 -c 0 -i 30 -a 0 -x {1.0 3.1 30 ------- null}
h -t 1.12418 -s 2 -d 3 -p cbr -e 210 -c 0 -i 30 -a 0 -x {1.0 3.1 -1 ------- null}
+ -t 1.1275 -s 1 -d 2 -p cbr -e 210 -c 0 -i 34 -a 0 -x {1.0 3.1 34 ------- null}
- -t 1.1275 -s 1 -d 2 -p cbr -e 210 -c 0 -i 34 -a 0 -x {1.0 3.1 34 ------- null}
h -t 1.1275 -s 1 -d 2 -p cbr -e 210 -c 0 -i 34 -a 0 -x {1.0 3.1 -1 ------- null}
r -t 1.12752 -s 2 -d 3 -p cbr -e 210 -c 0 -i 28 -a 0 -x {1.0 3.1 28 ------- null}
r -t 1.12793 -s 1 -d 2 -p cbr -e 210 -c 0 -i 31 -a 0 -x {1.0 3.1 31 ------- null}
+ -t 1.12793 -s 2 -d 3 -p cbr -e 210 -c 0 -i 31 -a 0 -x {1.0 3.1 31 ------- null}
- -t 1.12793 -s 2 -d 3 -p cbr -e 210 -c 0 -i 31 -a 0 -x {1.0 3.1 31 ------- null}
h -t 1.12793 -s 2 -d 3 -p cbr -e 210 -c 0 -i 31 -a 0 -x {1.0 3.1 -1 ------- null}
+ -t 1.13125 -s 1 -d 2 -p cbr -e 210 -c 0 -i 35 -a 0 -x {1.0 3.1 35 ------- null}
- -t 1.13125 -s 1 -d 2 -p cbr -e 210 -c 0 -i 35 -a 0 -x {1.0 3.1 35 ------- null}
h -t 1.13125 -s 1 -d 2 -p cbr -e 210 -c 0 -i 35 -a 0 -x {1.0 3.1 -1 ------- null}
r -t 1.13127 -s 2 -d 3 -p cbr -e 210 -c 0 -i 29 -a 0 -x {1.0 3.1 29 ------- null}
r -t 1.13168 -s 1 -d 2 -p cbr -e 210 -c 0 -i 32 -a 0 -x {1.0 3.1 32 ------- null}
+ -t 1.13168 -s 2 -d 3 -p cbr -e 210 -c 0 -i 32 -a 0 -x {1.0 3.1 32 ------- null}
- -t 1.13168 -s 2 -d 3 -p cbr -e 210 -c 0 -i 32 -a 0 -x {1.0 3.1 32 ------- null}
h -t 1.13168 -s 2 -d 3 -p cbr -e 210 -c 0 -i 32 -a 0 -x {1.0 3.1 -1 ------- null}
+ -t 1.135 -s 1 -d 2 -p cbr -e 210 -c 0 -i 36 -a 0 -x {1.0 3.1 36 ------- null}
- -t 1.135 -s 1 -d 2 -p cbr -e 210 -c 0 -i 36 -a 0 -x {1.0 3.1 36 ------- null}
h -t 1.135 -s 1 -d 2 -p cbr -e 210 -c 0 -i 36 -a 0 -x {1.0 3.1 -1 ------- null}
r -t 1.13502 -s 2 -d 3 -p cbr -e 210 -c 0 -i 30 -a 0 -x {1.0 3.1 30 ------- null}
r -t 1.13543 -s 1 -d 2 -p cbr -e 210 -c 0 -i 33 -a 0 -x {1.0 3.1 33 ------- null}
+ -t 1.13543 -s 2 -d 3 -p cbr -e 210 -c 0 -i 33 -a 0 -x {1.0 3.1 33 ------- null}
- -t 1.13543 -s 2 -d 3 -p cbr -e 210 -c 0 -i 33 -a 0 -x {1.0 3.1 33 ------- null}
h -t 1.13543 -s 2 -d 3 -p cbr -e 210 -c 0 -i 33 -a 0 -x {1.0 3.1 -1 ------- null}
+ -t 1.13875 -s 1 -d 2 -p cbr -e 210 -c 0 -i 37 -a 0 -x {1.0 3.1 37 ------- null}
- -t 1.13875 -s 1 -d 2 -p cbr -e 210 -c 0 -i 37 -a 0 -x {1.0 3.1 37 ------- null}
h -t 1.13875 -s 1 -d 2 -p cbr -e 210 -c 0 -i 37 -a 0 -x {1.0 3.1 -1 ------- null}
r -t 1.13877 -s 2 -d 3 -p cbr -e 210 -c 0 -i 31 -a 0 -x {1.0 3.1 31 ------- null}
r -t 1.13918 -s 1 -d 2 -p cbr -e 210 -c 0 -i 34 -a 0 -x {1.0 3.1 34 ------- null}
+ -t 1.13918 -s 2 -d 3 -p cbr -e 210 -c 0 -i 34 -a 0 -x {1.0 3.1 34 ------- null}
- -t 1.13918 -s 2 -d 3 -p cbr -e 210 -c 0 -i 34 -a 0 -x {1.0 3.1 34 ------- null}
h -t 1.13918 -s 2 -d 3 -p cbr -e 210 -c 0 -i 34 -a 0 -x {1.0 3.1 -1 ------- null}
+ -t 1.1425 -s 1 -d 2 -p cbr -e 210 -c 0 -i 38 -a 0 -x {1.0 3.1 38 ------- null}
- -t 1.1425 -s 1 -d 2 -p cbr -e 210 -c 0 -i 38 -a 0 -x {1.0 3.1 38 ------- null}
h -t 1.1425 -s 1 -d 2 -p cbr -e 210 -c 0 -i 38 -a 0 -x {1.0 3.1 -1 ------- null}
r -t 1.14252 -s 2 -d 3 -p cbr -e 210 -c 0 -i 32 -a 0 -x {1.0 3.1 32 ------- null}
r -t 1.14293 -s 1 -d 2 -p cbr -e 210 -c 0 -i 35 -a 0 -x {1.0 3.1 35 ------- null}
+ -t 1.14293 -s 2 -d 3 -p cbr -e 210 -c 0 -i 35 -a 0 -x {1.0 3.1 35 ------- null}
- -t 1.14293 -s 2 -d 3 -p cbr -e 210 -c 0 -i 35 -a 0 -x {1.0 3.1 35 ------- null}
h -t 1.14293 -s 2 -d 3 -p cbr -e 210 -c 0 -i 35 -a 0 -x {1.0 3.1 -1 ------- null}
+ -t 1.14625 -s 1 -d 2 -p cbr -e 210 -c 0 -i 39 -a 0 -x {1.0 3.1 39 ------- null}
- -t 1.14625 -s 1 -d 2 -p cbr -e 210 -c 0 -i 39 -a 0 -x {1.0 3.1 39 ------- null}
h -t 1.14625 -s 1 -d 2 -p cbr -e 210 -c 0 -i 39 -a 0 -x {1.0 3.1 -1 ------- null}
r -t 1.14627 -s 2 -d 3 -p cbr -e 210 -c 0 -i 33 -a 0 -x {1.0 3.1 33 ------- null}
r -t 1.14668 -s 1 -d 2 -p cbr -e 210 -c 0 -i 36 -a 0 -x {1.0 3.1 36 ------- null}
+ -t 1.14668 -s 2 -d 3 -p cbr -e 210 -c 0 -i 36 -a 0 -x {1.0 3.1 36 ------- null}
- -t 1.14668 -s 2 -d 3 -p cbr -e 210 -c 0 -i 36 -a 0 -x {1.0 3.1 36 ------- null}
h -t 1.14668 -s 2 -d 3 -p cbr -e 210 -c 0 -i 36 -a 0 -x {1.0 3.1 -1 ------- null}
+ -t 1.15 -s 1 -d 2 -p cbr -e 210 -c 0 -i 40 -a 0 -x {1.0 3.1 40 ------- null}
- -t 1.15 -s 1 -d 2 -p cbr -e 210 -c 0 -i 40 -a 0 -x {1.0 3.1 40 ------- null}
h -t 1.15 -s 1 -d 2 -p cbr -e 210 -c 0 -i 40 -a 0 -x {1.0 3.1 -1 ------- null}
r -t 1.15002 -s 2 -d 3 -p cbr -e 210 -c 0 -i 34 -a 0 -x {1.0 3.1 34 ------- null}
r -t 1.15043 -s 1 -d 2 -p cbr -e 210 -c 0 -i 37 -a 0 -x {1.0 3.1 37 ------- null}
+ -t 1.15043 -s 2 -d 3 -p cbr -e 210 -c 0 -i 37 -a 0 -x {1.0 3.1 37 ------- null}
- -t 1.15043 -s 2 -d 3 -p cbr -e 210 -c 0 -i 37 -a 0 -x {1.0 3.1 37 ------- null}
h -t 1.15043 -s 2 -d 3 -p cbr -e 210 -c 0 -i 37 -a 0 -x {1.0 3.1 -1 ------- null}
+ -t 1.15375 -s 1 -d 2 -p cbr -e 210 -c 0 -i 41 -a 0 -x {1.0 3.1 41 ------- null}
- -t 1.15375 -s 1 -d 2 -p cbr -e 210 -c 0 -i 41 -a 0 -x {1.0 3.1 41 ------- null}
h -t 1.15375 -s 1 -d 2 -p cbr -e 210 -c 0 -i 41 -a 0 -x {1.0 3.1 -1 ------- null}
r -t 1.15377 -s 2 -d 3 -p cbr -e 210 -c 0 -i 35 -a 0 -x {1.0 3.1 35 ------- null}
r -t 1.15418 -s 1 -d 2 -p cbr -e 210 -c 0 -i 38 -a 0 -x {1.0 3.1 38 ------- null}
+ -t 1.15418 -s 2 -d 3 -p cbr -e 210 -c 0 -i 38 -a 0 -x {1.0 3.1 38 ------- null}
- -t 1.15418 -s 2 -d 3 -p cbr -e 210 -c 0 -i 38 -a 0 -x {1.0 3.1 38 ------- null}
h -t 1.15418 -s 2 -d 3 -p cbr -e 210 -c 0 -i 38 -a 0 -x {1.0 3.1 -1 ------- null}
+ -t 1.1575 -s 1 -d 2 -p cbr -e 210 -c 0 -i 42 -a 0 -x {1.0 3.1 42 ------- null}
- -t 1.1575 -s 1 -d 2 -p cbr -e 210 -c 0 -i 42 -a 0 -x {1.0 3.1 42 ------- null}
h -t 1.1575 -s 1 -d 2 -p cbr -e 210 -c 0 -i 42 -a 0 -x {1.0 3.1 -1 ------- null}
r -t 1.15752 -s 2 -d 3 -p cbr -e 210 -c 0 -i 36 -a 0 -x {1.0 3.1 36 ------- null}
r -t 1.15793 -s 1 -d 2 -p cbr -e 210 -c 0 -i 39 -a 0 -x {1.0 3.1 39 ------- null}
+ -t 1.15793 -s 2 -d 3 -p cbr -e 210 -c 0 -i 39 -a 0 -x {1.0 3.1 39 ------- null}
- -t 1.15793 -s 2 -d 3 -p cbr -e 210 -c 0 -i 39 -a 0 -x {1.0 3.1 39 ------- null}
h -t 1.15793 -s 2 -d 3 -p cbr -e 210 -c 0 -i 39 -a 0 -x {1.0 3.1 -1 ------- null}
+ -t 1.16125 -s 1 -d 2 -p cbr -e 210 -c 0 -i 43 -a 0 -x {1.0 3.1 43 ------- null}
- -t 1.16125 -s 1 -d 2 -p cbr -e 210 -c 0 -i 43 -a 0 -x {1.0 3.1 43 ------- null}
h -t 1.16125 -s 1 -d 2 -p cbr -e 210 -c 0 -i 43 -a 0 -x {1.0 3.1 -1 ------- null}
r -t 1.16127 -s 2 -d 3 -p cbr -e 210 -c 0 -i 37 -a 0 -x {1.0 3.1 37 ------- null}
r -t 1.16168 -s 1 -d 2 -p cbr -e 210 -c 0 -i 40 -a 0 -x {1.0 3.1 40 ------- null}
+ -t 1.16168 -s 2 -d 3 -p cbr -e 210 -c 0 -i 40 -a 0 -x {1.0 3.1 40 ------- null}
- -t 1.16168 -s 2 -d 3 -p cbr -e 210 -c 0 -i 40 -a 0 -x {1.0 3.1 40 ------- null}
h -t 1.16168 -s 2 -d 3 -p cbr -e 210 -c 0 -i 40 -a 0 -x {1.0 3.1 -1 ------- null}
+ -t 1.165 -s 1 -d 2 -p cbr -e 210 -c 0 -i 44 -a 0 -x {1.0 3.1 44 ------- null}
- -t 1.165 -s 1 -d 2 -p cbr -e 210 -c 0 -i 44 -a 0 -x {1.0 3.1 44 ------- null}
h -t 1.165 -s 1 -d 2 -p cbr -e 210 -c 0 -i 44 -a 0 -x {1.0 3.1 -1 ------- null}
r -t 1.16502 -s 2 -d 3 -p cbr -e 210 -c 0 -i 38 -a 0 -x {1.0 3.1 38 ------- null}
r -t 1.16543 -s 1 -d 2 -p cbr -e 210 -c 0 -i 41 -a 0 -x {1.0 3.1 41 ------- null}
+ -t 1.16543 -s 2 -d 3 -p cbr -e 210 -c 0 -i 41 -a 0 -x {1.0 3.1 41 ------- null}
- -t 1.16543 -s 2 -d 3 -p cbr -e 210 -c 0 -i 41 -a 0 -x {1.0 3.1 41 ------- null}
h -t 1.16543 -s 2 -d 3 -p cbr -e 210 -c 0 -i 41 -a 0 -x {1.0 3.1 -1 ------- null}
+ -t 1.16875 -s 1 -d 2 -p cbr -e 210 -c 0 -i 45 -a 0 -x {1.0 3.1 45 ------- null}
- -t 1.16875 -s 1 -d 2 -p cbr -e 210 -c 0 -i 45 -a 0 -x {1.0 3.1 45 ------- null}
h -t 1.16875 -s 1 -d 2 -p cbr -e 210 -c 0 -i 45 -a 0 -x {1.0 3.1 -1 ------- null}
r -t 1.16877 -s 2 -d 3 -p cbr -e 210 -c 0 -i 39 -a 0 -x {1.0 3.1 39 ------- null}
r -t 1.16918 -s 1 -d 2 -p cbr -e 210 -c 0 -i 42 -a 0 -x {1.0 3.1 42 ------- null}
+ -t 1.16918 -s 2 -d 3 -p cbr -e 210 -c 0 -i 42 -a 0 -x {1.0 3.1 42 ------- null}
- -t 1.16918 -s 2 -d 3 -p cbr -e 210 -c 0 -i 42 -a 0 -x {1.0 3.1 42 ------- null}
h -t 1.16918 -s 2 -d 3 -p cbr -e 210 -c 0 -i 42 -a 0 -x {1.0 3.1 -1 ------- null}
+ -t 1.1725 -s 1 -d 2 -p cbr -e 210 -c 0 -i 46 -a 0 -x {1.0 3.1 46 ------- null}
- -t 1.1725 -s 1 -d 2 -p cbr -e 210 -c 0 -i 46 -a 0 -x {1.0 3.1 46 ------- null}
h -t 1.1725 -s 1 -d 2 -p cbr -e 210 -c 0 -i 46 -a 0 -x {1.0 3.1 -1 ------- null}
r -t 1.17252 -s 2 -d 3 -p cbr -e 210 -c 0 -i 40 -a 0 -x {1.0 3.1 40 ------- null}
r -t 1.17293 -s 1 -d 2 -p cbr -e 210 -c 0 -i 43 -a 0 -x {1.0 3.1 43 ------- null}
+ -t 1.17293 -s 2 -d 3 -p cbr -e 210 -c 0 -i 43 -a 0 -x {1.0 3.1 43 ------- null}
- -t 1.17293 -s 2 -d 3 -p cbr -e 210 -c 0 -i 43 -a 0 -x {1.0 3.1 43 ------- null}
h -t 1.17293 -s 2 -d 3 -p cbr -e 210 -c 0 -i 43 -a 0 -x {1.0 3.1 -1 ------- null}
+ -t 1.17625 -s 1 -d 2 -p cbr -e 210 -c 0 -i 47 -a 0 -x {1.0 3.1 47 ------- null}
- -t 1.17625 -s 1 -d 2 -p cbr -e 210 -c 0 -i 47 -a 0 -x {1.0 3.1 47 ------- null}
h -t 1.17625 -s 1 -d 2 -p cbr -e 210 -c 0 -i 47 -a 0 -x {1.0 3.1 -1 ------- null}
r -t 1.17627 -s 2 -d 3 -p cbr -e 210 -c 0 -i 41 -a 0 -x {1.0 3.1 41 ------- null}
r -t 1.17668 -s 1 -d 2 -p cbr -e 210 -c 0 -i 44 -a 0 -x {1.0 3.1 44 ------- null}