+ 1 1 2 cbr 210 ------- 0 1.0 3.1 0 0
- 1 1 2 cbr 210 ------- 0 1.0 3.1 0 0
+ 1.00375 1 2 cbr 210 ------- 0 1.0 3.1 1 1
- 1.00375 1 2 cbr 210 ------- 0 1.0 3.1 1 1
+ 1.0075 1 2 cbr 210 ------- 0 1.0 3.1 2 2
- 1.0075 1 2 cbr 210 ------- 0 1.0 3.1 2 2
+ 1.01125 1 2 cbr 210 ------- 0 1.0 3.1 3 3
- 1.01125 1 2 cbr 210 ------- 0 1.0 3.1 3 3
r 1.01168 1 2 cbr 210 ------- 0 1.0 3.1 0 0
+ 1.01168 2 3 cbr 210 ------- 0 1.0 3.1 0 0
- 1.01168 2 3 cbr 210 ------- 0 1.0 3.1 0 0
+ 1.015 1 2 cbr 210 ------- 0 1.0 3.1 4 4
- 1.015 1 2 cbr 210 ------- 0 1.0 3.1 4 4
r 1.01543 1 2 cbr 210 ------- 0 1.0 3.1 1 1
+ 1.01543 2 3 cbr 210 ------- 0 1.0 3.1 1 1
- 1.01543 2 3 cbr 210 ------- 0 1.0 3.1 1 1
+ 1.01875 1 2 cbr 210 ------- 0 1.0 3.1 5 5
- 1.01875 1 2 cbr 210 ------- 0 1.0 3.1 5 5
r 1.01918 1 2 cbr 210 ------- 0 1.0 3.1 2 2
+ 1.01918 2 3 cbr 210 ------- 0 1.0 3.1 2 2
- 1.01918 2 3 cbr 210 ------- 0 1.0 3.1 2 2
+ 1.0225 1 2 cbr 210 ------- 0 1.0 3.1 6 6
- 1.0225 1 2 cbr 210 ------- 0 1.0 3.1 6 6
r 1.02252 2 3 cbr 210 ------- 0 1.0 3.1 0 0
r 1.02293 1 2 cbr 210 ------- 0 1.0 3.1 3 3
+ 1.02293 2 3 cbr 210 ------- 0 1.0 3.1 3 3
- 1.02293 2 3 cbr 210 ------- 0 1.0 3.1 3 3
+ 1.02625 1 2 cbr 210 ------- 0 1.0 3.1 7 7
- 1.02625 1 2 cbr 210 ------- 0 1.0 3.1 7 7
r 1.02627 2 3 cbr 210 ------- 0 1.0 3.1 1 1
r 1.02668 1 2 cbr 210 ------- 0 1.0 3.1 4 4
+ 1.02668 2 3 cbr 210 ------- 0 1.0 3.1 4 4
- 1.02668 2 3 cbr 210 ------- 0 1.0 3.1 4 4
+ 1.03 1 2 cbr 210 ------- 0 1.0 3.1 8 8
- 1.03 1 2 cbr 210 ------- 0 1.0 3.1 8 8
r 1.03002 2 3 cbr 210 ------- 0 1.0 3.1 2 2
r 1.03043 1 2 cbr 210 ------- 0 1.0 3.1 5 5
+ 1.03043 2 3 cbr 210 ------- 0 1.0 3.1 5 5
- 1.03043 2 3 cbr 210 ------- 0 1.0 3.1 5 5
+ 1.03375 1 2 cbr 210 ------- 0 1.0 3.1 9 9
- 1.03375 1 2 cbr 210 ------- 0 1.0 3.1 9 9
r 1.03377 2 3 cbr 210 ------- 0 1.0 3.1 3 3
r 1.03418 1 2 cbr 210 ------- 0 1.0 3.1 6 6
+ 1.03418 2 3 cbr 210 ------- 0 1.0 3.1 6 6
- 1.03418 2 3 cbr 210 ------- 0 1.0 3.1 6 6
+ 1.0375 1 2 cbr 210 ------- 0 1.0 3.1 10 10
- 1.0375 1 2 cbr 210 ------- 0 1.0 3.1 10 10
r 1.03752 2 3 cbr 210 ------- 0 1.0 3.1 4 4
r 1.03793 1 2 cbr 210 ------- 0 1.0 3.1 7 7
+ 1.03793 2 3 cbr 210 ------- 0 1.0 3.1 7 7
- 1.03793 2 3 cbr 210 ------- 0 1.0 3.1 7 7
+ 1.04125 1 2 cbr 210 ------- 0 1.0 3.1 11 11
- 1.04125 1 2 cbr 210 ------- 0 1.0 3.1 11 11
r 1.04127 2 3 cbr 210 ------- 0 1.0 3.1 5 5
r 1.04168 1 2 cbr 210 ------- 0 1.0 3.1 8 8
+ 1.04168 2 3 cbr 210 ------- 0 1.0 3.1 8 8
- 1.04168 2 3 cbr 210 ------- 0 1.0 3.1 8 8
+ 1.045 1 2 cbr 210 ------- 0 1.0 3.1 12 12
- 1.045 1 2 cbr 210 ------- 0 1.0 3.1 12 12
r 1.04502 2 3 cbr 210 ------- 0 1.0 3.1 6 6
r 1.04543 1 2 cbr 210 ------- 0 1.0 3.1 9 9
+ 1.04543 2 3 cbr 210 ------- 0 1.0 3.1 9 9
- 1.04543 2 3 cbr 210 ------- 0 1.0 3.1 9 9
+ 1.04875 1 2 cbr 210 ------- 0 1.0 3.1 13 13
- 1.04875 1 2 cbr 210 ------- 0 1.0 3.1 13 13
r 1.04877 2 3 cbr 210 ------- 0 1.0 3.1 7 7
r 1.04918 1 2 cbr 210 ------- 0 1.0 3.1 10 10
+ 1.04918 2 3 cbr 210 ------- 0 1.0 3.1 10 10
- 1.04918 2 3 cbr 210 ------- 0 1.0 3.1 10 10
+ 1.0525 1 2 cbr 210 ------- 0 1.0 3.1 14 14
- 1.0525 1 2 cbr 210 ------- 0 1.0 3.1 14 14
r 1.05252 2 3 cbr 210 ------- 0 1.0 3.1 8 8
r 1.05293 1 2 cbr 210 ------- 0 1.0 3.1 11 11
+ 1.05293 2 3 cbr 210 ------- 0 1.0 3.1 11 11
- 1.05293 2 3 cbr 210 ------- 0 1.0 3.1 11 11
+ 1.05625 1 2 cbr 210 ------- 0 1.0 3.1 15 15
- 1.05625 1 2 cbr 210 ------- 0 1.0 3.1 15 15
r 1.05627 2 3 cbr 210 ------- 0 1.0 3.1 9 9
r 1.05668 1 2 cbr 210 ------- 0 1.0 3.1 12 12
+ 1.05668 2 3 cbr 210 ------- 0 1.0 3.1 12 12
- 1.05668 2 3 cbr 210 ------- 0 1.0 3.1 12 12
+ 1.06 1 2 cbr 210 ------- 0 1.0 3.1 16 16
- 1.06 1 2 cbr 210 ------- 0 1.0 3.1 16 16
r 1.06002 2 3 cbr 210 ------- 0 1.0 3.1 10 10
r 1.06043 1 2 cbr 210 ------- 0 1.0 3.1 13 13
+ 1.06043 2 3 cbr 210 ------- 0 1.0 3.1 13 13
- 1.06043 2 3 cbr 210 ------- 0 1.0 3.1 13 13
+ 1.06375 1 2 cbr 210 ------- 0 1.0 3.1 17 17
- 1.06375 1 2 cbr 210 ------- 0 1.0 3.1 17 17
r 1.06377 2 3 cbr 210 ------- 0 1.0 3.1 11 11
r 1.06418 1 2 cbr 210 ------- 0 1.0 3.1 14 14
+ 1.06418 2 3 cbr 210 ------- 0 1.0 3.1 14 14
- 1.06418 2 3 cbr 210 ------- 0 1.0 3.1 14 14
+ 1.0675 1 2 cbr 210 ------- 0 1.0 3.1 18 18
- 1.0675 1 2 cbr 210 ------- 0 1.0 3.1 18 18
r 1.06752 2 3 cbr 210 ------- 0 1.0 3.1 12 12
r 1.06793 1 2 cbr 210 ------- 0 1.0 3.1 15 15
+ 1.06793 2 3 cbr 210 ------- 0 1.0 3.1 15 15
- 1.06793 2 3 cbr 210 ------- 0 1.0 3.1 15 15
+ 1.07125 1 2 cbr 210 ------- 0 1.0 3.1 19 19
- 1.07125 1 2 cbr 210 ------- 0 1.0 3.1 19 19
r 1.07127 2 3 cbr 210 ------- 0 1.0 3.1 13 13
r 1.07168 1 2 cbr 210 ------- 0 1.0 3.1 16 16
+ 1.07168 2 3 cbr 210 ------- 0 1.0 3.1 16 16
- 1.07168 2 3 cbr 210 ------- 0 1.0 3.1 16 16
+ 1.075 1 2 cbr 210 ------- 0 1.0 3.1 20 20
- 1.075 1 2 cbr 210 ------- 0 1.0 3.1 20 20
r 1.07502 2 3 cbr 210 ------- 0 1.0 3.1 14 14
r 1.07543 1 2 cbr 210 ------- 0 1.0 3.1 17 17
+ 1.07543 2 3 cbr 210 ------- 0 1.0 3.1 17 17
- 1.07543 2 3 cbr 210 ------- 0 1.0 3.1 17 17
+ 1.07875 1 2 cbr 210 ------- 0 1.0 3.1 21 21
- 1.07875 1 2 cbr 210 ------- 0 1.0 3.1 21 21
r 1.07877 2 3 cbr 210 ------- 0 1.0 3.1 15 15
r 1.07918 1 2 cbr 210 ------- 0 1.0 3.1 18 18
+ 1.07918 2 3 cbr 210 ------- 0 1.0 3.1 18 18
- 1.07918 2 3 cbr 210 ------- 0 1.0 3.1 18 18
+ 1.0825 1 2 cbr 210 ------- 0 1.0 3.1 22 22
- 1.0825 1 2 cbr 210 ------- 0 1.0 3.1 22 22
r 1.08252 2 3 cbr 210 ------- 0 1.0 3.1 16 16
r 1.08293 1 2 cbr 210 ------- 0 1.0 3.1 19 19
+ 1.08293 2 3 cbr 210 ------- 0 1.0 3.1 19 19
- 1.08293 2 3 cbr 210 ------- 0 1.0 3.1 19 19
+ 1.08625 1 2 cbr 210 ------- 0 1.0 3.1 23 23
- 1.08625 1 2 cbr 210 ------- 0 1.0 3.1 23 23
r 1.08627 2 3 cbr 210 ------- 0 1.0 3.1 17 17
r 1.08668 1 2 cbr 210 ------- 0 1.0 3.1 20 20
+ 1.08668 2 3 cbr 210 ------- 0 1.0 3.1 20 20
- 1.08668 2 3 cbr 210 ------- 0 1.0 3.1 20 20
+ 1.09 1 2 cbr 210 ------- 0 1.0 3.1 24 24
- 1.09 1 2 cbr 210 ------- 0 1.0 3.1 24 24
r 1.09002 2 3 cbr 210 ------- 0 1.0 3.1 18 18
r 1.09043 1 2 cbr 210 ------- 0 1.0 3.1 21 21
+ 1.09043 2 3 cbr 210 ------- 0 1.0 3.1 21 21
- 1.09043 2 3 cbr 210 ------- 0 1.0 3.1 21 21
+ 1.09375 1 2 cbr 210 ------- 0 1.0 3.1 25 25
- 1.09375 1 2 cbr 210 ------- 0 1.0 3.1 25 25
r 1.09377 2 3 cbr 210 ------- 0 1.0 3.1 19 19
r 1.09418 1 2 cbr 210 ------- 0 1.0 3.1 22 22
+ 1.09418 2 3 cbr 210 ------- 0 1.0 3.1 22 22
- 1.09418 2 3 cbr 210 ------- 0 1.0 3.1 22 22
+ 1.0975 1 2 cbr 210 ------- 0 1.0 3.1 26 26
- 1.0975 1 2 cbr 210 ------- 0 1.0 3.1 26 26
r 1.09752 2 3 cbr 210 ------- 0 1.0 3.1 20 20
r 1.09793 1 2 cbr 210 ------- 0 1.0 3.1 23 23
+ 1.09793 2 3 cbr 210 ------- 0 1.0 3.1 23 23
- 1.09793 2 3 cbr 210 ------- 0 1.0 3.1 23 23
+ 1.10125 1 2 cbr 210 ------- 0 1.0 3.1 27 27
- 1.10125 1 2 cbr 210 ------- 0 1.0 3.1 27 27
r 1.10127 2 3 cbr 210 ------- 0 1.0 3.1 21 21
r 1.10168 1 2 cbr 210 ------- 0 1.0 3.1 24 24
+ 1.10168 2 3 cbr 210 ------- 0 1.0 3.1 24 24
- 1.10168 2 3 cbr 210 ------- 0 1.0 3.1 24 24
+ 1.105 1 2 cbr 210 ------- 0 1.0 3.1 28 28
- 1.105 1 2 cbr 210 ------- 0 1.0 3.1 28 28
r 1.10502 2 3 cbr 210 ------- 0 1.0 3.1 22 22
r 1.10543 1 2 cbr 210 ------- 0 1.0 3.1 25 25
+ 1.10543 2 3 cbr 210 ------- 0 1.0 3.1 25 25
- 1.10543 2 3 cbr 210 ------- 0 1.0 3.1 25 25
+ 1.10875 1 2 cbr 210 ------- 0 1.0 3.1 29 29
- 1.10875 1 2 cbr 210 ------- 0 1.0 3.1 29 29
r 1.10877 2 3 cbr 210 ------- 0 1.0 3.1 23 23
r 1.10918 1 2 cbr 210 ------- 0 1.0 3.1 26 26
+ 1.10918 2 3 cbr 210 ------- 0 1.0 3.1 26 26
- 1.10918 2 3 cbr 210 ------- 0 1.0 3.1 26 26
+ 1.1125 1 2 cbr 210 ------- 0 1.0 3.1 30 30
- 1.1125 1 2 cbr 210 ------- 0 1.0 3.1 30 30
r 1.11252 2 3 cbr 210 ------- 0 1.0 3.1 24 24
r 1.11293 1 2 cbr 210 ------- 0 1.0 3.1 27 27
+ 1.11293 2 3 cbr 210 ------- 0 1.0 3.1 27 27
- 1.11293 2 3 cbr 210 ------- 0 1.0 3.1 27 27
+ 1.11625 1 2 cbr 210 ------- 0 1.0 3.1 31 31
- 1.11625 1 2 cbr 210 ------- 0 1.0 3.1 31 31
r 1.11627 2 3 cbr 210 ------- 0 1.0 3.1 25 25
r 1.11668 1 2 cbr 210 ------- 0 1.0 3.1 28 28
+ 1.11668 2 3 cbr 210 ------- 0 1.0 3.1 28 28
- 1.11668 2 3 cbr 210 ------- 0 1.0 3.1 28 28
+ 1.12 1 2 cbr 210 ------- 0 1.0 3.1 32 32
- 1.12 1 2 cbr 210 ------- 0 1.0 3.1 32 32
r 1.12002 2 3 cbr 210 ------- 0 1.0 3.1 26 26
r 1.12043 1 2 cbr 210 ------- 0 1.0 3.1 29 29
+ 1.12043 2 3 cbr 210 ------- 0 1.0 3.1 29 29
- 1.12043 2 3 cbr 210 ------- 0 1.0 3.1 29 29
+ 1.12375 1 2 cbr 210 ------- 0 1.0 3.1 33 33
- 1.12375 1 2 cbr 210 ------- 0 1.0 3.1 33 33
r 1.12377 2 3 cbr 210 ------- 0 1.0 3.1 27 27
r 1.12418 1 2 cbr 210 ------- 0 1.0 3.1 30 30
+ 1.12418 2 3 cbr 210 ------- 0 1.0 3.1 30 30
- 1.12418 2 3 cbr 210 ------- 0 1.0 3.1 30 30
+ 1.1275 1 2 cbr 210 ------- 0 1.0 3.1 34 34
- 1.1275 1 2 cbr 210 ------- 0 1.0 3.1 34 34
r 1.12752 2 3 cbr 210 ------- 0 1.0 3.1 28 28
r 1.12793 1 2 cbr 210 ------- 0 1.0 3.1 31 31
+ 1.12793 2 3 cbr 210 ------- 0 1.0 3.1 31 31
- 1.12793 2 3 cbr 210 ------- 0 1.0 3.1 31 31
+ 1.13125 1 2 cbr 210 ------- 0 1.0 3.1 35 35
- 1.13125 1 2 cbr 210 ------- 0 1.0 3.1 35 35
r 1.13127 2 3 cbr 210 ------- 0 1.0 3.1 29 29
r 1.13168 1 2 cbr 210 ------- 0 1.0 3.1 32 32
+ 1.13168 2 3 cbr 210 ------- 0 1.0 3.1 32 32
- 1.13168 2 3 cbr 210 ------- 0 1.0 3.1 32 32
+ 1.135 1 2 cbr 210 ------- 0 1.0 3.1 36 36
- 1.135 1 2 cbr 210 ------- 0 1.0 3.1 36 36
r 1.13502 2 3 cbr 210 ------- 0 1.0 3.1 30 30
r 1.13543 1 2 cbr 210 ------- 0 1.0 3.1 33 33
+ 1.13543 2 3 cbr 210 ------- 0 1.0 3.1 33 33
- 1.13543 2 3 cbr 210 ------- 0 1.0 3.1 33 33
+ 1.13875 1 2 cbr 210 ------- 0 1.0 3.1 37 37
- 1.13875 1 2 cbr 210 ------- 0 1.0 3.1 37 37
r 1.13877 2 3 cbr 210 ------- 0 1.0 3.1 31 31
r 1.13918 1 2 cbr 210 ------- 0 1.0 3.1 34 34
+ 1.13918 2 3 cbr 210 ------- 0 1.0 3.1 34 34
- 1.13918 2 3 cbr 210 ------- 0 1.0 3.1 34 34
+ 1.1425 1 2 cbr 210 ------- 0 1.0 3.1 38 38
- 1.1425 1 2 cbr 210 ------- 0 1.0 3.1 38 38
r 1.14252 2 3 cbr 210 ------- 0 1.0 3.1 32 32
r 1.14293 1 2 cbr 210 ------- 0 1.0 3.1 35 35
+ 1.14293 2 3 cbr 210 ------- 0 1.0 3.1 35 35
- 1.14293 2 3 cbr 210 ------- 0 1.0 3.1 35 35
+ 1.14625 1 2 cbr 210 ------- 0 1.0 3.1 39 39
- 1.14625 1 2 cbr 210 ------- 0 1.0 3.1 39 39
r 1.14627 2 3 cbr 210 ------- 0 1.0 3.1 33 33
r 1.14668 1 2 cbr 210 ------- 0 1.0 3.1 36 36
+ 1.14668 2 3 cbr 210 ------- 0 1.0 3.1 36 36
- 1.14668 2 3 cbr 210 ------- 0 1.0 3.1 36 36
+ 1.15 1 2 cbr 210 ------- 0 1.0 3.1 40 40
- 1.15 1 2 cbr 210 ------- 0 1.0 3.1 40 40
r 1.15002 2 3 cbr 210 ------- 0 1.0 3.1 34 34
r 1.15043 1 2 cbr 210 ------- 0 1.0 3.1 37 37
+ 1.15043 2 3 cbr 210 ------- 0 1.0 3.1 37 37
- 1.15043 2 3 cbr 210 ------- 0 1.0 3.1 37 37
+ 1.15375 1 2 cbr 210 ------- 0 1.0 3.1 41 41
- 1.15375 1 2 cbr 210 ------- 0 1.0 3.1 41 41
r 1.15377 2 3 cbr 210 ------- 0 1.0 3.1 35 35
r 1.15418 1 2 cbr 210 ------- 0 1.0 3.1 38 38
+ 1.15418 2 3 cbr 210 ------- 0 1.0 3.1 38 38
- 1.15418 2 3 cbr 210 ------- 0 1.0 3.1 38 38
+ 1.1575 1 2 cbr 210 ------- 0 1.0 3.1 42 42
- 1.1575 1 2 cbr 210 ------- 0 1.0 3.1 42 42
r 1.15752 2 3 cbr 210 ------- 0 1.0 3.1 36 36
r 1.15793 1 2 cbr 210 ------- 0 1.0 3.1 39 39
+ 1.15793 2 3 cbr 210 ------- 0 1.0 3.1 39 39
- 1.15793 2 3 cbr 210 ------- 0 1.0 3.1 39 39
+ 1.16125 1 2 cbr 210 ------- 0 1.0 3.1 43 43
- 1.16125 1 2 cbr 210 ------- 0 1.0 3.1 43 43
r 1.16127 2 3 cbr 210 ------- 0 1.0 3.1 37 37
r 1.16168 1 2 cbr 210 ------- 0 1.0 3.1 40 40
+ 1.16168 2 3 cbr 210 ------- 0 1.0 3.1 40 40
- 1.16168 2 3 cbr 210 ------- 0 1.0 3.1 40 40
+ 1.165 1 2 cbr 210 ------- 0 1.0 3.1 44 44
- 1.165 1 2 cbr 210 ------- 0 1.0 3.1 44 44
r 1.16502 2 3 cbr 210 ------- 0 1.0 3.1 38 38
r 1.16543 1 2 cbr 210 ------- 0 1.0 3.1 41 41
+ 1.16543 2 3 cbr 210 ------- 0 1.0 3.1 41 41
- 1.16543 2 3 cbr 210 ------- 0 1.0 3.1 41 41
+ 1.16875 1 2 cbr 210 ------- 0 1.0 3.1 45 45
- 1.16875 1 2 cbr 210 ------- 0 1.0 3.1 45 45
r 1.16877 2 3 cbr 210 ------- 0 1.0 3.1 39 39
r 1.16918 1 2 cbr 210 ------- 0 1.0 3.1 42 42
+ 1.16918 2 3 cbr 210 ------- 0 1.0 3.1 42 42
- 1.16918 2 3 cbr 210 ------- 0 1.0 3.1 42 42
+ 1.1725 1 2 cbr 210 ------- 0 1.0 3.1 46 46
- 1.1725 1 2 cbr 210 ------- 0 1.0 3.1 46 46
r 1.17252 2 3 cbr 210 ------- 0 1.0 3.1 40 40
r 1.17293 1 2 cbr 210 ------- 0 1.0 3.1 43 43
+ 1.17293 2 3 cbr 210 ------- 0 1.0 3.1 43 43
- 1.17293 2 3 cbr 210 ------- 0 1.0 3.1 43 43
+ 1.17625 1 2 cbr 210 ------- 0 1.0 3.1 47 47
- 1.17625 1 2 cbr 210 ------- 0 1.0 3.1 47 47
r 1.17627 2 3 cbr 210 ------- 0 1.0 3.1 41 41
r 1.17668 1 2 cbr 210 ------- 0 1.0 3.1 44 44
+ 1.17668 2 3 cbr 210 ------- 0 1.0 3.1 44 44
- 1.17668 2 3 cbr 210 ------- 0 1.0 3.1 44 44
+ 1.18 1 2 cbr 210 ------- 0 1.0 3.1 48 48
- 1.18 1 2 cbr 210 ------- 0 1.0 3.1 48 48
r 1.18002 2 3 cbr 210 ------- 0 1.0 3.1 42 42
r 1.18043 1 2 cbr 210 ------- 0 1.0 3.1 45 45
+ 1.18043 2 3 cbr 210 ------- 0 1.0 3.1 45 45
- 1.18043 2 3 cbr 210 ------- 0 1.0 3.1 45 45
+ 1.18375 1 2 cbr 210 ------- 0 1.0 3.1 49 49
- 1.18375 1 2 cbr 210 ------- 0 1.0 3.1 49 49
r 1.18377 2 3 cbr 210 ------- 0 1.0 3.1 43 43
r 1.18418 1 2 cbr 210 ------- 0 1.0 3.1 46 46
+ 1.18418 2 3 cbr 210 ------- 0 1.0 3.1 46 46
- 1.18418 2 3 cbr 210 ------- 0 1.0 3.1 46 46
+ 1.1875 1 2 cbr 210 ------- 0 1.0 3.1 50 50
- 1.1875 1 2 cbr 210 ------- 0 1.0 3.1 50 50
r 1.18752 2 3 cbr 210 ------- 0 1.0 3.1 44 44
r 1.18793 1 2 cbr 210 ------- 0 1.0 3.1 47 47
+ 1.18793 2 3 cbr 210 ------- 0 1.0 3.1 47 47
- 1.18793 2 3 cbr 210 ------- 0 1.0 3.1 47 47
+ 1.19125 1 2 cbr 210 ------- 0 1.0 3.1 51 51
- 1.19125 1 2 cbr 210 ------- 0 1.0 3.1 51 51
r 1.19127 2 3 cbr 210 ------- 0 1.0 3.1 45 45
r 1.19168 1 2 cbr 210 ------- 0 1.0 3.1 48 48
+ 1.19168 2 3 cbr 210 ------- 0 1.0 3.1 48 48
- 1.19168 2 3 cbr 210 ------- 0 1.0 3.1 48 48
+ 1.195 1 2 cbr 210 ------- 0 1.0 3.1 52 52
- 1.195 1 2 cbr 210 ------- 0 1.0 3.1 52 52
r 1.19502 2 3 cbr 210 ------- 0 1.0 3.1 46 46
r 1.19543 1 2 cbr 210 ------- 0 1.0 3.1 49 49
+ 1.19543 2 3 cbr 210 ------- 0 1.0 3.1 49 49
- 1.19543 2 3 cbr 210 ------- 0 1.0 3.1 49 49
+ 1.19875 1 2 cbr 210 ------- 0 1.0 3.1 53 53
- 1.19875 1 2 cbr 210 ------- 0 1.0 3.1 53 53
r 1.19877 2 3 cbr 210 ------- 0 1.0 3.1 47 47
r 1.19918 1 2 cbr 210 ------- 0 1.0 3.1 50 50
+ 1.19918 2 3 cbr 210 ------- 0 1.0 3.1 50 50
- 1.19918 2 3 cbr 210 ------- 0 1.0 3.1 50 50
+ 1.2025 1 2 cbr 210 ------- 0 1.0 3.1 54 54
- 1.2025 1 2 cbr 210 ------- 0 1.0 3.1 54 54
r 1.20252 2 3 cbr 210 ------- 0 1.0 3.1 48 48
r 1.20293 1 2 cbr 210 ------- 0 1.0 3.1 51 51
+ 1.20293 2 3 cbr 210 ------- 0 1.0 3.1 51 51
- 1.20293 2 3 cbr 210 ------- 0 1.0 3.1 51 51
+ 1.20625 1 2 cbr 210 ------- 0 1.0 3.1 55 55
- 1.20625 1 2 cbr 210 ------- 0 1.0 3.1 55 55
r 1.20627 2 3 cbr 210 ------- 0 1.0 3.1 49 49
r 1.20668 1 2 cbr 210 ------- 0 1.0 3.1 52 52
+ 1.20668 2 3 cbr 210 ------- 0 1.0 3.1 52 52
- 1.20668 2 3 cbr 210 ------- 0 1.0 3.1 52 52
+ 1.21 1 2 cbr 210 ------- 0 1.0 3.1 56 56
- 1.21 1 2 cbr 210 ------- 0 1.0 3.1 56 56
r 1.21002 2 3 cbr 210 ------- 0 1.0 3.1 50 50
r 1.21043 1 2 cbr 210 ------- 0 1.0 3.1 53 53
+ 1.21043 2 3 cbr 210 ------- 0 1.0 3.1 53 53
- 1.21043 2 3 cbr 210 ------- 0 1.0 3.1 53 53
+ 1.21375 1 2 cbr 210 ------- 0 1.0 3.1 57 57
- 1.21375 1 2 cbr 210 ------- 0 1.0 3.1 57 57
r 1.21377 2 3 cbr 210 ------- 0 1.0 3.1 51 51
r 1.21418 1 2 cbr 210 ------- 0 1.0 3.1 54 54
+ 1.21418 2 3 cbr 210 ------- 0 1.0 3.1 54 54
- 1.21418 2 3 cbr 210 ------- 0 1.0 3.1 54 54
+ 1.2175 1 2 cbr 210 ------- 0 1.0 3.1 58 58
- 1.2175 1 2 cbr 210 ------- 0 1.0 3.1 58 58
r 1.21752 2 3 cbr 210 ------- 0 1.0 3.1 52 52
r 1.21793 1 2 cbr 210 ------- 0 1.0 3.1 55 55
+ 1.21793 2 3 cbr 210 ------- 0 1.0 3.1 55 55
- 1.21793 2 3 cbr 210 ------- 0 1.0 3.1 55 55
+ 1.22125 1 2 cbr 210 ------- 0 1.0 3.1 59 59
- 1.22125 1 2 cbr 210 ------- 0 1.0 3.1 59 59
r 1.22127 2 3 cbr 210 ------- 0 1.0 3.1 53 53
r 1.22168 1 2 cbr 210 ------- 0 1.0 3.1 56 56
+ 1.22168 2 3 cbr 210 ------- 0 1.0 3.1 56 56
- 1.22168 2 3 cbr 210 ------- 0 1.0 3.1 56 56
+ 1.225 1 2 cbr 210 ------- 0 1.0 3.1 60 60
- 1.225 1 2 cbr 210 ------- 0 1.0 3.1 60 60
r 1.22502 2 3 cbr 210 ------- 0 1.0 3.1 54 54
r 1.22543 1 2 cbr 210 ------- 0 1.0 3.1 57 57
+ 1.22543 2 3 cbr 210 ------- 0 1.0 3.1 57 57
- 1.22543 2 3 cbr 210 ------- 0 1.0 3.1 57 57
+ 1.22875 1 2 cbr 210 ------- 0 1.0 3.1 61 61
- 1.22875 1 2 cbr 210 ------- 0 1.0 3.1 61 61
r 1.22877 2 3 cbr 210 ------- 0 1.0 3.1 55 55
r 1.22918 1 2 cbr 210 ------- 0 1.0 3.1 58 58
+ 1.22918 2 3 cbr 210 ------- 0 1.0 3.1 58 58
- 1.22918 2 3 cbr 210 ------- 0 1.0 3.1 58 58
+ 1.2325 1 2 cbr 210 ------- 0 1.0 3.1 62 62
- 1.2325 1 2 cbr 210 ------- 0 1.0 3.1 62 62
r 1.23252 2 3 cbr 210 ------- 0 1.0 3.1 56 56
r 1.23293 1 2 cbr 210 ------- 0 1.0 3.1 59 59
+ 1.23293 2 3 cbr 210 ------- 0 1.0 3.1 59 59
- 1.23293 2 3 cbr 210 ------- 0 1.0 3.1 59 59
+ 1.23625 1 2 cbr 210 ------- 0 1.0 3.1 63 63
- 1.23625 1 2 cbr 210 ------- 0 1.0 3.1 63 63
r 1.23627 2 3 cbr 210 ------- 0 1.0 3.1 57 57
r 1.23668 1 2 cbr 210 ------- 0 1.0 3.1 60 60
+ 1.23668 2 3 cbr 210 ------- 0 1.0 3.1 60 60
- 1.23668 2 3 cbr 210 ------- 0 1.0 3.1 60 60
+ 1.24 1 2 cbr 210 ------- 0 1.0 3.1 64 64
- 1.24 1 2 cbr 210 ------- 0 1.0 3.1 64 64
r 1.24002 2 3 cbr 210 ------- 0 1.0 3.1 58 58
r 1.24043 1 2 cbr 210 ------- 0 1.0 3.1 61 61
+ 1.24043 2 3 cbr 210 ------- 0 1.0 3.1 61 61
- 1.24043 2 3 cbr 210 ------- 0 1.0 3.1 61 61
+ 1.24375 1 2 cbr 210 ------- 0 1.0 3.1 65 65
- 1.24375 1 2 cbr 210 ------- 0 1.0 3.1 65 65
r 1.24377 2 3 cbr 210 ------- 0 1.0 3.1 59 59
r 1.24418 1 2 cbr 210 ------- 0 1.0 3.1 62 62
+ 1.24418 2 3 cbr 210 ------- 0 1.0 3.1 62 62
- 1.24418 2 3 cbr 210 ------- 0 1.0 3.1 62 62
+ 1.2475 1 2 cbr 210 ------- 0 1.0 3.1 66 66
- 1.2475 1 2 cbr 210 ------- 0 1.0 3.1 66 66
r 1.24752 2 3 cbr 210 ------- 0 1.0 3.1 60 60
r 1.24793 1 2 cbr 210 ------- 0 1.0 3.1 63 63
+ 1.24793 2 3 cbr 210 ------- 0 1.0 3.1 63 63
- 1.24793 2 3 cbr 210 ------- 0 1.0 3.1 63 63
+ 1.25125 1 2 cbr 210 ------- 0 1.0 3.1 67 67
- 1.25125 1 2 cbr 210 ------- 0 1.0 3.1 67 67
r 1.25127 2 3 cbr 210 ------- 0 1.0 3.1 61 61
r 1.25168 1 2 cbr 210 ------- 0 1.0 3.1 64 64
+ 1.25168 2 3 cbr 210 ------- 0 1.0 3.1 64 64
- 1.25168 2 3 cbr 210 ------- 0 1.0 3.1 64 64
+ 1.255 1 2 cbr 210 ------- 0 1.0 3.1 68 68
- 1.255 1 2 cbr 210 ------- 0 1.0 3.1 68 68
r 1.25502 2 3 cbr 210 ------- 0 1.0 3.1 62 62
r 1.25543 1 2 cbr 210 ------- 0 1.0 3.1 65 65
+ 1.25543 2 3 cbr 210 ------- 0 1.0 3.1 65 65
- 1.25543 2 3 cbr 210 ------- 0 1.0 3.1 65 65
+ 1.25875 1 2 cbr 210 ------- 0 1.0 3.1 69 69
- 1.25875 1 2 cbr 210 ------- 0 1.0 3.1 69 69
r 1.25877 2 3 cbr 210 ------- 0 1.0 3.1 63 63
r 1.25918 1 2 cbr 210 ------- 0 1.0 3.1 66 66
+ 1.25918 2 3 cbr 210 ------- 0 1.0 3.1 66 66
- 1.25918 2 3 cbr 210 ------- 0 1.0 3.1 66 66
+ 1.2625 1 2 cbr 210 ------- 0 1.0 3.1 70 70
- 1.2625 1 2 cbr 210 ------- 0 1.0 3.1 70 70
r 1.26252 2 3 cbr 210 ------- 0 1.0 3.1 64 64
r 1.26293 1 2 cbr 210 ------- 0 1.0 3.1 67 67
+ 1.26293 2 3 cbr 210 ------- 0 1.0 3.1 67 67
- 1.26293 2 3 cbr 210 ------- 0 1.0 3.1 67 67
+ 1.26625 1 2 cbr 210 ------- 0 1.0 3.1 71 71
- 1.26625 1 2 cbr 210 ------- 0 1.0 3.1 71 71
r 1.26627 2 3 cbr 210 ------- 0 1.0 3.1 65 65
r 1.26668 1 2 cbr 210 ------- 0 1.0 3.1 68 68
+ 1.26668 2 3 cbr 210 ------- 0 1.0 3.1 68 68
- 1.26668 2 3 cbr 210 ------- 0 1.0 3.1 68 68
+ 1.27 1 2 cbr 210 ------- 0 1.0 3.1 72 72
- 1.27 1 2 cbr 210 ------- 0 1.0 3.1 72 72
r 1.27002 2 3 cbr 210 ------- 0 1.0 3.1 66 66
r 1.27043 1 2 cbr 210 ------- 0 1.0 3.1 69 69
+ 1.27043 2 3 cbr 210 ------- 0 1.0 3.1 69 69
- 1.27043 2 3 cbr 210 ------- 0 1.0 3.1 69 69
+ 1.27375 1 2 cbr 210 ------- 0 1.0 3.1 73 73
- 1.27375 1 2 cbr 210 ------- 0 1.0 3.1 73 73
r 1.27377 2 3 cbr 210 ------- 0 1.0 3.1 67 67
r 1.27418 1 2 cbr 210 ------- 0 1.0 3.1 70 70
+ 1.27418 2 3 cbr 210 ------- 0 1.0 3.1 70 70
- 1.27418 2 3 cbr 210 ------- 0 1.0 3.1 70 70
+ 1.2775 1 2 cbr 210 ------- 0 1.0 3.1 74 74
- 1.2775 1 2 cbr 210 ------- 0 1.0 3.1 74 74
r 1.27752 2 3 cbr 210 ------- 0 1.0 3.1 68 68
r 1.27793 1 2 cbr 210 ------- 0 1.0 3.1 71 71
+ 1.27793 2 3 cbr 210 ------- 0 1.0 3.1 71 71
- 1.27793 2 3 cbr 210 ------- 0 1.0 3.1 71 71
+ 1.28125 1 2 cbr 210 ------- 0 1.0 3.1 75 75
- 1.28125 1 2 cbr 210 ------- 0 1.0 3.1 75 75
r 1.28127 2 3 cbr 210 ------- 0 1.0 3.1 69 69
r 1.28168 1 2 cbr 210 ------- 0 1.0 3.1 72 72
+ 1.28168 2 3 cbr 210 ------- 0 1.0 3.1 72 72
- 1.28168 2 3 cbr 210 ------- 0 1.0 3.1 72 72
+ 1.285 1 2 cbr 210 ------- 0 1.0 3.1 76 76
- 1.285 1 2 cbr 210 ------- 0 1.0 3.1 76 76
r 1.28502 2 3 cbr 210 ------- 0 1.0 3.1 70 70
r 1.28543 1 2 cbr 210 ------- 0 1.0 3.1 73 73
+ 1.28543 2 3 cbr 210 ------- 0 1.0 3.1 73 73
- 1.28543 2 3 cbr 210 ------- 0 1.0 3.1 73 73
+ 1.28875 1 2 cbr 210 ------- 0 1.0 3.1 77 77
- 1.28875 1 2 cbr 210 ------- 0 1.0 3.1 77 77
r 1.28877 2 3 cbr 210 ------- 0 1.0 3.1 71 71
r 1.28918 1 2 cbr 210 ------- 0 1.0 3.1 74 74
+ 1.28918 2 3 cbr 210 ------- 0 1.0 3.1 74 74
- 1.28918 2 3 cbr 210 ------- 0 1.0 3.1 74 74
+ 1.2925 1 2 cbr 210 ------- 0 1.0 3.1 78 78
- 1.2925 1 2 cbr 210 ------- 0 1.0 3.1 78 78
r 1.29252 2 3 cbr 210 ------- 0 1.0 3.1 72 72
r 1.29293 1 2 cbr 210 ------- 0 1.0 3.1 75 75
+ 1.29293 2 3 cbr 210 ------- 0 1.0 3.1 75 75
- 1.29293 2 3 cbr 210 ------- 0 1.0 3.1 75 75
+ 1.29625 1 2 cbr 210 ------- 0 1.0 3.1 79 79
- 1.29625 1 2 cbr 210 ------- 0 1.0 3.1 79 79
r 1.29627 2 3 cbr 210 ------- 0 1.0 3.1 73 73
r 1.29668 1 2 cbr 210 ------- 0 1.0 3.1 76 76
+ 1.29668 2 3 cbr 210 ------- 0 1.0 3.1 76 76
- 1.29668 2 3 cbr 210 ------- 0 1.0 3.1 76 76
+ 1.3 1 2 cbr 210 ------- 0 1.0 3.1 80 80
- 1.3 1 2 cbr 210 ------- 0 1.0 3.1 80 80
r 1.30002 2 3 cbr 210 ------- 0 1.0 3.1 74 74
r 1.30043 1 2 cbr 210 ------- 0 1.0 3.1 77 77
+ 1.30043 2 3 cbr 210 ------- 0 1.0 3.1 77 77
- 1.30043 2 3 cbr 210 ------- 0 1.0 3.1 77 77
+ 1.30375 1 2 cbr 210 ------- 0 1.0 3.1 81 81
- 1.30375 1 2 cbr 210 ------- 0 1.0 3.1 81 81
r 1.30377 2 3 cbr 210 ------- 0 1.0 3.1 75 75
r 1.30418 1 2 cbr 210 ------- 0 1.0 3.1 78 78
+ 1.30418 2 3 cbr 210 ------- 0 1.0 3.1 78 78
- 1.30418 2 3 cbr 210 ------- 0 1.0 3.1 78 78
+ 1.3075 1 2 cbr 210 ------- 0 1.0 3.1 82 82
- 1.3075 1 2 cbr 210 ------- 0 1.0 3.1 82 82
r 1.30752 2 3 cbr 210 ------- 0 1.0 3.1 76 76
r 1.30793 1 2 cbr 210 ------- 0 1.0 3.1 79 79
+ 1.30793 2 3 cbr 210 ------- 0 1.0 3.1 79 79
- 1.30793 2 3 cbr 210 ------- 0 1.0 3.1 79 79
+ 1.31125 1 2 cbr 210 ------- 0 1.0 3.1 83 83
- 1.31125 1 2 cbr 210 ------- 0 1.0 3.1 83 83
r 1.31127 2 3 cbr 210 ------- 0 1.0 3.1 77 77
r 1.31168 1 2 cbr 210 ------- 0 1.0 3.1 80 80
+ 1.31168 2 3 cbr 210 ------- 0 1.0 3.1 80 80
- 1.31168 2 3 cbr 210 ------- 0 1.0 3.1 80 80
+ 1.315 1 2 cbr 210 ------- 0 1.0 3.1 84 84
- 1.315 1 2 cbr 210 ------- 0 1.0 3.1 84 84
r 1.31502 2 3 cbr 210 ------- 0 1.0 3.1 78 78
r 1.31543 1 2 cbr 210 ------- 0 1.0 3.1 81 81
+ 1.31543 2 3 cbr 210 ------- 0 1.0 3.1 81 81
- 1.31543 2 3 cbr 210 ------- 0 1.0 3.1 81 81
+ 1.31875 1 2 cbr 210 ------- 0 1.0 3.1 85 85
- 1.31875 1 2 cbr 210 ------- 0 1.0 3.1 85 85
r 1.31877 2 3 cbr 210 ------- 0 1.0 3.1 79 79
r 1.31918 1 2 cbr 210 ------- 0 1.0 3.1 82 82
+ 1.31918 2 3 cbr 210 ------- 0 1.0 3.1 82 82
- 1.31918 2 3 cbr 210 ------- 0 1.0 3.1 82 82
+ 1.3225 1 2 cbr 210 ------- 0 1.0 3.1 86 86
- 1.3225 1 2 cbr 210 ------- 0 1.0 3.1 86 86
r 1.32252 2 3 cbr 210 ------- 0 1.0 3.1 80 80
r 1.32293 1 2 cbr 210 ------- 0 1.0 3.1 83 83
+ 1.32293 2 3 cbr 210 ------- 0 1.0 3.1 83 83
- 1.32293 2 3 cbr 210 ------- 0 1.0 3.1 83 83
+ 1.32625 1 2 cbr 210 ------- 0 1.0 3.1 87 87
- 1.32625 1 2 cbr 210 ------- 0 1.0 3.1 87 87
r 1.32627 2 3 cbr 210 ------- 0 1.0 3.1 81 81
r 1.32668 1 2 cbr 210 ------- 0 1.0 3.1 84 84
+ 1.32668 2 3 cbr 210 ------- 0 1.0 3.1 84 84
- 1.32668 2 3 cbr 210 ------- 0 1.0 3.1 84 84
+ 1.33 1 2 cbr 210 ------- 0 1.0 3.1 88 88
- 1.33 1 2 cbr 210 ------- 0 1.0 3.1 88 88
r 1.33002 2 3 cbr 210 ------- 0 1.0 3.1 82 82
r 1.33043 1 2 cbr 210 ------- 0 1.0 3.1 85 85
+ 1.33043 2 3 cbr 210 ------- 0 1.0 3.1 85 85
- 1.33043 2 3 cbr 210 ------- 0 1.0 3.1 85 85
+ 1.33375 1 2 cbr 210 ------- 0 1.0 3.1 89 89
- 1.33375 1 2 cbr 210 ------- 0 1.0 3.1 89 89
r 1.33377 2 3 cbr 210 ------- 0 1.0 3.1 83 83
r 1.33418 1 2 cbr 210 ------- 0 1.0 3.1 86 86
+ 1.33418 2 3 cbr 210 ------- 0 1.0 3.1 86 86
- 1.33418 2 3 cbr 210 ------- 0 1.0 3.1 86 86
+ 1.3375 1 2 cbr 210 ------- 0 1.0 3.1 90 90
- 1.3375 1 2 cbr 210 ------- 0 1.0 3.1 90 90
r 1.33752 2 3 cbr 210 ------- 0 1.0 3.1 84 84
r 1.33793 1 2 cbr 210 ------- 0 1.0 3.1 87 87
+ 1.33793 2 3 cbr 210 ------- 0 1.0 3.1 87 87
- 1.33793 2 3 cbr 210 ------- 0 1.0 3.1 87 87
+ 1.34125 1 2 cbr 210 ------- 0 1.0 3.1 91 91
- 1.34125 1 2 cbr 210 ------- 0 1.0 3.1 91 91
r 1.34127 2 3 cbr 210 ------- 0 1.0 3.1 85 85
r 1.34168 1 2 cbr 210 ------- 0 1.0 3.1 88 88
+ 1.34168 2 3 cbr 210 ------- 0 1.0 3.1 88 88
- 1.34168 2 3 cbr 210 ------- 0 1.0 3.1 88 88
+ 1.345 1 2 cbr 210 ------- 0 1.0 3.1 92 92
- 1.345 1 2 cbr 210 ------- 0 1.0 3.1 92 92
r 1.34502 2 3 cbr 210 ------- 0 1.0 3.1 86 86
r 1.34543 1 2 cbr 210 ------- 0 1.0 3.1 89 89
+ 1.34543 2 3 cbr 210 ------- 0 1.0 3.1 89 89
- 1.34543 2 3 cbr 210 ------- 0 1.0 3.1 89 89
+ 1.34875 1 2 cbr 210 ------- 0 1.0 3.1 93 93
- 1.34875 1 2 cbr 210 ------- 0 1.0 3.1 93 93
r 1.34877 2 3 cbr 210 ------- 0 1.0 3.1 87 87
r 1.34918 1 2 cbr 210 ------- 0 1.0 3.1 90 90
+ 1.34918 2 3 cbr 210 ------- 0 1.0 3.1 90 90
- 1.34918 2 3 cbr 210 ------- 0 1.0 3.1 90 90
+ 1.3525 1 2 cbr 210 ------- 0 1.0 3.1 94 94
- 1.3525 1 2 cbr 210 ------- 0 1.0 3.1 94 94
r 1.35252 2 3 cbr 210 ------- 0 1.0 3.1 88 88
r 1.35293 1 2 cbr 210 ------- 0 1.0 3.1 91 91
+ 1.35293 2 3 cbr 210 ------- 0 1.0 3.1 91 91
- 1.35293 2 3 cbr 210 ------- 0 1.0 3.1 91 91
+ 1.35625 1 2 cbr 210 ------- 0 1.0 3.1 95 95
- 1.35625 1 2 cbr 210 ------- 0 1.0 3.1 95 95
r 1.35627 2 3 cbr 210 ------- 0 1.0 3.1 89 89
r 1.35668 1 2 cbr 210 ------- 0 1.0 3.1 92 92
+ 1.35668 2 3 cbr 210 ------- 0 1.0 3.1 92 92
- 1.35668 2 3 cbr 210 ------- 0 1.0 3.1 92 92
+ 1.36 1 2 cbr 210 ------- 0 1.0 3.1 96 96
- 1.36 1 2 cbr 210 ------- 0 1.0 3.1 96 96
r 1.36002 2 3 cbr 210 ------- 0 1.0 3.1 90 90
r 1.36043 1 2 cbr 210 ------- 0 1.0 3.1 93 93
+ 1.36043 2 3 cbr 210 ------- 0 1.0 3.1 93 93
- 1.36043 2 3 cbr 210 ------- 0 1.0 3.1 93 93
+ 1.36375 1 2 cbr 210 ------- 0 1.0 3.1 97 97
- 1.36375 1 2 cbr 210 ------- 0 1.0 3.1 97 97
r 1.36377 2 3 cbr 210 ------- 0 1.0 3.1 91 91
r 1.36418 1 2 cbr 210 ------- 0 1.0 3.1 94 94
+ 1.36418 2 3 cbr 210 ------- 0 1.0 3.1 94 94
- 1.36418 2 3 cbr 210 ------- 0 1.0 3.1 94 94
+ 1.3675 1 2 cbr 210 ------- 0 1.0 3.1 98 98
- 1.3675 1 2 cbr 210 ------- 0 1.0 3.1 98 98
r 1.36752 2 3 cbr 210 ------- 0 1.0 3.1 92 92
r 1.36793 1 2 cbr 210 ------- 0 1.0 3.1 95 95
+ 1.36793 2 3 cbr 210 ------- 0 1.0 3.1 95 95
- 1.36793 2 3 cbr 210 ------- 0 1.0 3.1 95 95
+ 1.37125 1 2 cbr 210 ------- 0 1.0 3.1 99 99
- 1.37125 1 2 cbr 210 ------- 0 1.0 3.1 99 99
r 1.37127 2 3 cbr 210 ------- 0 1.0 3.1 93 93
r 1.37168 1 2 cbr 210 ------- 0 1.0 3.1 96 96
+ 1.37168 2 3 cbr 210 ------- 0 1.0 3.1 96 96
- 1.37168 2 3 cbr 210 ------- 0 1.0 3.1 96 96
+ 1.375 1 2 cbr 210 ------- 0 1.0 3.1 100 100
- 1.375 1 2 cbr 210 ------- 0 1.0 3.1 100 100
r 1.37502 2 3 cbr 210 ------- 0 1.0 3.1 94 94
r 1.37543 1 2 cbr 210 ------- 0 1.0 3.1 97 97
+ 1.37543 2 3 cbr 210 ------- 0 1.0 3.1 97 97
- 1.37543 2 3 cbr 210 ------- 0 1.0 3.1 97 97
+ 1.37875 1 2 cbr 210 ------- 0 1.0 3.1 101 101
- 1.37875 1 2 cbr 210 ------- 0 1.0 3.1 101 101
r 1.37877 2 3 cbr 210 ------- 0 1.0 3.1 95 95
r 1.37918 1 2 cbr 210 ------- 0 1.0 3.1 98 98
+ 1.37918 2 3 cbr 210 ------- 0 1.0 3.1 98 98
- 1.37918 2 3 cbr 210 ------- 0 1.0 3.1 98 98
+ 1.3825 1 2 cbr 210 ------- 0 1.0 3.1 102 102
- 1.3825 1 2 cbr 210 ------- 0 1.0 3.1 102 102
r 1.38252 2 3 cbr 210 ------- 0 1.0 3.1 96 96
r 1.38293 1 2 cbr 210 ------- 0 1.0 3.1 99 99
+ 1.38293 2 3 cbr 210 ------- 0 1.0 3.1 99 99
- 1.38293 2 3 cbr 210 ------- 0 1.0 3.1 99 99
+ 1.38625 1 2 cbr 210 ------- 0 1.0 3.1 103 103
- 1.38625 1 2 cbr 210 ------- 0 1.0 3.1 103 103
r 1.38627 2 3 cbr 210 ------- 0 1.0 3.1 97 97
r 1.38668 1 2 cbr 210 ------- 0 1.0 3.1 100 100
+ 1.38668 2 3 cbr 210 ------- 0 1.0 3.1 100 100
- 1.38668 2 3 cbr 210 ------- 0 1.0 3.1 100 100
+ 1.39 1 2 cbr 210 ------- 0 1.0 3.1 104 104
- 1.39 1 2 cbr 210 ------- 0 1.0 3.1 104 104
r 1.39002 2 3 cbr 210 ------- 0 1.0 3.1 98 98
r 1.39043 1 2 cbr 210 ------- 0 1.0 3.1 101 101
+ 1.39043 2 3 cbr 210 ------- 0 1.0 3.1 101 101
- 1.39043 2 3 cbr 210 ------- 0 1.0 3.1 101 101
+ 1.39375 1 2 cbr 210 ------- 0 1.0 3.1 105 105
- 1.39375 1 2 cbr 210 ------- 0 1.0 3.1 105 105
r 1.39377 2 3 cbr 210 ------- 0 1.0 3.1 99 99
r 1.39418 1 2 cbr 210 ------- 0 1.0 3.1 102 102
+ 1.39418 2 3 cbr 210 ------- 0 1.0 3.1 102 102
- 1.39418 2 3 cbr 210 ------- 0 1.0 3.1 102 102
+ 1.3975 1 2 cbr 210 ------- 0 1.0 3.1 106 106
- 1.3975 1 2 cbr 210 ------- 0 1.0 3.1 106 106
r 1.39752 2 3 cbr 210 ------- 0 1.0 3.1 100 100
r 1.39793 1 2 cbr 210 ------- 0 1.0 3.1 103 103
+ 1.39793 2 3 cbr 210 ------- 0 1.0 3.1 103 103
- 1.39793 2 3 cbr 210 ------- 0 1.0 3.1 103 103
+ 1.40125 1 2 cbr 210 ------- 0 1.0 3.1 107 107
- 1.40125 1 2 cbr 210 ------- 0 1.0 3.1 107 107
r 1.40127 2 3 cbr 210 ------- 0 1.0 3.1 101 101
r 1.40168 1 2 cbr 210 ------- 0 1.0 3.1 104 104
+ 1.40168 2 3 cbr 210 ------- 0 1.0 3.1 104 104
- 1.40168 2 3 cbr 210 ------- 0 1.0 3.1 104 104
+ 1.405 1 2 cbr 210 ------- 0 1.0 3.1 108 108
- 1.405 1 2 cbr 210 ------- 0 1.0 3.1 108 108
r 1.40502 2 3 cbr 210 ------- 0 1.0 3.1 102 102
r 1.40543 1 2 cbr 210 ------- 0 1.0 3.1 105 105
+ 1.40543 2 3 cbr 210 ------- 0 1.0 3.1 105 105
- 1.40543 2 3 cbr 210 ------- 0 1.0 3.1 105 105
+ 1.40875 1 2 cbr 210 ------- 0 1.0 3.1 109 109
- 1.40875 1 2 cbr 210 ------- 0 1.0 3.1 109 109
r 1.40877 2 3 cbr 210 ------- 0 1.0 3.1 103 103
r 1.40918 1 2 cbr 210 ------- 0 1.0 3.1 106 106
+ 1.40918 2 3 cbr 210 ------- 0 1.0 3.1 106 106
- 1.40918 2 3 cbr 210 ------- 0 1.0 3.1 106 106
+ 1.4125 1 2 cbr 210 ------- 0 1.0 3.1 110 110
- 1.4125 1 2 cbr 210 ------- 0 1.0 3.1 110 110
r 1.41252 2 3 cbr 210 ------- 0 1.0 3.1 104 104
r 1.41293 1 2 cbr 210 ------- 0 1.0 3.1 107 107
+ 1.41293 2 3 cbr 210 ------- 0 1.0 3.1 107 107
- 1.41293 2 3 cbr 210 ------- 0 1.0 3.1 107 107
+ 1.41625 1 2 cbr 210 ------- 0 1.0 3.1 111 111
- 1.41625 1 2 cbr 210 ------- 0 1.0 3.1 111 111
r 1.41627 2 3 cbr 210 ------- 0 1.0 3.1 105 105
r 1.41668 1 2 cbr 210 ------- 0 1.0 3.1 108 108
+ 1.41668 2 3 cbr 210 ------- 0 1.0 3.1 108 108