V -t * -v 1.0a5 -a 0
A -t * -n 1 -p 0 -o 0x7fffffff -c 30 -a 1
A -t * -h 1 -m 1073741823 -s 0
n -t * -a 4 -s 4 -S UP -v circle -c black -i black
n -t * -a 0 -s 0 -S UP -v circle -c black -i black
n -t * -a 5 -s 5 -S UP -v circle -c black -i black
n -t * -a 1 -s 1 -S UP -v circle -c black -i black
n -t * -a 2 -s 2 -S UP -v circle -c black -i black
n -t * -a 3 -s 3 -S UP -v circle -c black -i black
l -t * -s 0 -d 2 -S UP -r 1000000 -D 0.01 -c black
l -t * -s 1 -d 2 -S UP -r 1000000 -D 0.01 -c black
l -t * -s 2 -d 3 -S UP -r 3000000 -D 0.01 -c black
l -t * -s 3 -d 4 -S UP -r 2000000 -D 0.01 -c black
l -t * -s 3 -d 5 -S UP -r 2000000 -D 0.01 -c black
+ -t 0.1 -s 0 -d 2 -p tcp -e 40 -c 0 -i 0 -a 0 -x {0.0 5.0 0 ------- null}
- -t 0.1 -s 0 -d 2 -p tcp -e 40 -c 0 -i 0 -a 0 -x {0.0 5.0 0 ------- null}
h -t 0.1 -s 0 -d 2 -p tcp -e 40 -c 0 -i 0 -a 0 -x {0.0 5.0 -1 ------- null}
r -t 0.11032 -s 0 -d 2 -p tcp -e 40 -c 0 -i 0 -a 0 -x {0.0 5.0 0 ------- null}
+ -t 0.11032 -s 2 -d 3 -p tcp -e 40 -c 0 -i 0 -a 0 -x {0.0 5.0 0 ------- null}
- -t 0.11032 -s 2 -d 3 -p tcp -e 40 -c 0 -i 0 -a 0 -x {0.0 5.0 0 ------- null}
h -t 0.11032 -s 2 -d 3 -p tcp -e 40 -c 0 -i 0 -a 0 -x {0.0 5.0 -1 ------- null}
r -t 0.120426666666667 -s 2 -d 3 -p tcp -e 40 -c 0 -i 0 -a 0 -x {0.0 5.0 0 ------- null}
+ -t 0.120426666666667 -s 3 -d 5 -p tcp -e 40 -c 0 -i 0 -a 0 -x {0.0 5.0 0 ------- null}
- -t 0.120426666666667 -s 3 -d 5 -p tcp -e 40 -c 0 -i 0 -a 0 -x {0.0 5.0 0 ------- null}
h -t 0.120426666666667 -s 3 -d 5 -p tcp -e 40 -c 0 -i 0 -a 0 -x {0.0 5.0 -1 ------- null}
r -t 0.130586666666667 -s 3 -d 5 -p tcp -e 40 -c 0 -i 0 -a 0 -x {0.0 5.0 0 ------- null}
+ -t 0.130586666666667 -s 5 -d 3 -p ack -e 40 -c 0 -i 1 -a 0 -x {5.0 0.0 0 ------- null}
- -t 0.130586666666667 -s 5 -d 3 -p ack -e 40 -c 0 -i 1 -a 0 -x {5.0 0.0 0 ------- null}
h -t 0.130586666666667 -s 5 -d 3 -p ack -e 40 -c 0 -i 1 -a 0 -x {5.0 0.0 -1 ------- null}
r -t 0.140746666666667 -s 5 -d 3 -p ack -e 40 -c 0 -i 1 -a 0 -x {5.0 0.0 0 ------- null}
+ -t 0.140746666666667 -s 3 -d 2 -p ack -e 40 -c 0 -i 1 -a 0 -x {5.0 0.0 0 ------- null}
- -t 0.140746666666667 -s 3 -d 2 -p ack -e 40 -c 0 -i 1 -a 0 -x {5.0 0.0 0 ------- null}
h -t 0.140746666666667 -s 3 -d 2 -p ack -e 40 -c 0 -i 1 -a 0 -x {5.0 0.0 -1 ------- null}
r -t 0.150853333333333 -s 3 -d 2 -p ack -e 40 -c 0 -i 1 -a 0 -x {5.0 0.0 0 ------- null}
+ -t 0.150853333333333 -s 2 -d 0 -p ack -e 40 -c 0 -i 1 -a 0 -x {5.0 0.0 0 ------- null}
- -t 0.150853333333333 -s 2 -d 0 -p ack -e 40 -c 0 -i 1 -a 0 -x {5.0 0.0 0 ------- null}
h -t 0.150853333333333 -s 2 -d 0 -p ack -e 40 -c 0 -i 1 -a 0 -x {5.0 0.0 -1 ------- null}
r -t 0.161173333333333 -s 2 -d 0 -p ack -e 40 -c 0 -i 1 -a 0 -x {5.0 0.0 0 ------- null}
+ -t 0.161173333333333 -s 0 -d 2 -p tcp -e 1040 -c 0 -i 2 -a 0 -x {0.0 5.0 1 ------- null}
- -t 0.161173333333333 -s 0 -d 2 -p tcp -e 1040 -c 0 -i 2 -a 0 -x {0.0 5.0 1 ------- null}
h -t 0.161173333333333 -s 0 -d 2 -p tcp -e 1040 -c 0 -i 2 -a 0 -x {0.0 5.0 -1 ------- null}
+ -t 0.161173333333333 -s 0 -d 2 -p tcp -e 1040 -c 0 -i 3 -a 0 -x {0.0 5.0 2 ------- null}
- -t 0.169493333333333 -s 0 -d 2 -p tcp -e 1040 -c 0 -i 3 -a 0 -x {0.0 5.0 2 ------- null}
h -t 0.169493333333333 -s 0 -d 2 -p tcp -e 1040 -c 0 -i 3 -a 0 -x {0.0 5.0 -1 ------- null}
r -t 0.179493333333333 -s 0 -d 2 -p tcp -e 1040 -c 0 -i 2 -a 0 -x {0.0 5.0 1 ------- null}
+ -t 0.179493333333333 -s 2 -d 3 -p tcp -e 1040 -c 0 -i 2 -a 0 -x {0.0 5.0 1 ------- null}
- -t 0.179493333333333 -s 2 -d 3 -p tcp -e 1040 -c 0 -i 2 -a 0 -x {0.0 5.0 1 ------- null}
h -t 0.179493333333333 -s 2 -d 3 -p tcp -e 1040 -c 0 -i 2 -a 0 -x {0.0 5.0 -1 ------- null}
r -t 0.187813333333333 -s 0 -d 2 -p tcp -e 1040 -c 0 -i 3 -a 0 -x {0.0 5.0 2 ------- null}
+ -t 0.187813333333333 -s 2 -d 3 -p tcp -e 1040 -c 0 -i 3 -a 0 -x {0.0 5.0 2 ------- null}
- -t 0.187813333333333 -s 2 -d 3 -p tcp -e 1040 -c 0 -i 3 -a 0 -x {0.0 5.0 2 ------- null}
h -t 0.187813333333333 -s 2 -d 3 -p tcp -e 1040 -c 0 -i 3 -a 0 -x {0.0 5.0 -1 ------- null}
r -t 0.192266666666667 -s 2 -d 3 -p tcp -e 1040 -c 0 -i 2 -a 0 -x {0.0 5.0 1 ------- null}
+ -t 0.192266666666667 -s 3 -d 5 -p tcp -e 1040 -c 0 -i 2 -a 0 -x {0.0 5.0 1 ------- null}
- -t 0.192266666666667 -s 3 -d 5 -p tcp -e 1040 -c 0 -i 2 -a 0 -x {0.0 5.0 1 ------- null}
h -t 0.192266666666667 -s 3 -d 5 -p tcp -e 1040 -c 0 -i 2 -a 0 -x {0.0 5.0 -1 ------- null}
+ -t 0.2 -s 1 -d 2 -p cbr -e 500 -c 0 -i 4 -a 0 -x {1.0 4.0 0 ------- null}
- -t 0.2 -s 1 -d 2 -p cbr -e 500 -c 0 -i 4 -a 0 -x {1.0 4.0 0 ------- null}
h -t 0.2 -s 1 -d 2 -p cbr -e 500 -c 0 -i 4 -a 0 -x {1.0 4.0 -1 ------- null}
r -t 0.200586666666667 -s 2 -d 3 -p tcp -e 1040 -c 0 -i 3 -a 0 -x {0.0 5.0 2 ------- null}
+ -t 0.200586666666667 -s 3 -d 5 -p tcp -e 1040 -c 0 -i 3 -a 0 -x {0.0 5.0 2 ------- null}
- -t 0.200586666666667 -s 3 -d 5 -p tcp -e 1040 -c 0 -i 3 -a 0 -x {0.0 5.0 2 ------- null}
h -t 0.200586666666667 -s 3 -d 5 -p tcp -e 1040 -c 0 -i 3 -a 0 -x {0.0 5.0 -1 ------- null}
+ -t 0.205 -s 1 -d 2 -p cbr -e 500 -c 0 -i 5 -a 0 -x {1.0 4.0 1 ------- null}
- -t 0.205 -s 1 -d 2 -p cbr -e 500 -c 0 -i 5 -a 0 -x {1.0 4.0 1 ------- null}
h -t 0.205 -s 1 -d 2 -p cbr -e 500 -c 0 -i 5 -a 0 -x {1.0 4.0 -1 ------- null}
r -t 0.206426666666667 -s 3 -d 5 -p tcp -e 1040 -c 0 -i 2 -a 0 -x {0.0 5.0 1 ------- null}
+ -t 0.206426666666667 -s 5 -d 3 -p ack -e 40 -c 0 -i 6 -a 0 -x {5.0 0.0 1 ------- null}
- -t 0.206426666666667 -s 5 -d 3 -p ack -e 40 -c 0 -i 6 -a 0 -x {5.0 0.0 1 ------- null}
h -t 0.206426666666667 -s 5 -d 3 -p ack -e 40 -c 0 -i 6 -a 0 -x {5.0 0.0 -1 ------- null}
+ -t 0.21 -s 1 -d 2 -p cbr -e 500 -c 0 -i 7 -a 0 -x {1.0 4.0 2 ------- null}
- -t 0.21 -s 1 -d 2 -p cbr -e 500 -c 0 -i 7 -a 0 -x {1.0 4.0 2 ------- null}
h -t 0.21 -s 1 -d 2 -p cbr -e 500 -c 0 -i 7 -a 0 -x {1.0 4.0 -1 ------- null}
r -t 0.214 -s 1 -d 2 -p cbr -e 500 -c 0 -i 4 -a 0 -x {1.0 4.0 0 ------- null}
+ -t 0.214 -s 2 -d 3 -p cbr -e 500 -c 0 -i 4 -a 0 -x {1.0 4.0 0 ------- null}
- -t 0.214 -s 2 -d 3 -p cbr -e 500 -c 0 -i 4 -a 0 -x {1.0 4.0 0 ------- null}
h -t 0.214 -s 2 -d 3 -p cbr -e 500 -c 0 -i 4 -a 0 -x {1.0 4.0 -1 ------- null}
r -t 0.214746666666667 -s 3 -d 5 -p tcp -e 1040 -c 0 -i 3 -a 0 -x {0.0 5.0 2 ------- null}
+ -t 0.214746666666667 -s 5 -d 3 -p ack -e 40 -c 0 -i 8 -a 0 -x {5.0 0.0 2 ------- null}
- -t 0.214746666666667 -s 5 -d 3 -p ack -e 40 -c 0 -i 8 -a 0 -x {5.0 0.0 2 ------- null}
h -t 0.214746666666667 -s 5 -d 3 -p ack -e 40 -c 0 -i 8 -a 0 -x {5.0 0.0 -1 ------- null}
+ -t 0.215 -s 1 -d 2 -p cbr -e 500 -c 0 -i 9 -a 0 -x {1.0 4.0 3 ------- null}
- -t 0.215 -s 1 -d 2 -p cbr -e 500 -c 0 -i 9 -a 0 -x {1.0 4.0 3 ------- null}
h -t 0.215 -s 1 -d 2 -p cbr -e 500 -c 0 -i 9 -a 0 -x {1.0 4.0 -1 ------- null}
r -t 0.216586666666667 -s 5 -d 3 -p ack -e 40 -c 0 -i 6 -a 0 -x {5.0 0.0 1 ------- null}
+ -t 0.216586666666667 -s 3 -d 2 -p ack -e 40 -c 0 -i 6 -a 0 -x {5.0 0.0 1 ------- null}
- -t 0.216586666666667 -s 3 -d 2 -p ack -e 40 -c 0 -i 6 -a 0 -x {5.0 0.0 1 ------- null}
h -t 0.216586666666667 -s 3 -d 2 -p ack -e 40 -c 0 -i 6 -a 0 -x {5.0 0.0 -1 ------- null}
r -t 0.219 -s 1 -d 2 -p cbr -e 500 -c 0 -i 5 -a 0 -x {1.0 4.0 1 ------- null}
+ -t 0.219 -s 2 -d 3 -p cbr -e 500 -c 0 -i 5 -a 0 -x {1.0 4.0 1 ------- null}
- -t 0.219 -s 2 -d 3 -p cbr -e 500 -c 0 -i 5 -a 0 -x {1.0 4.0 1 ------- null}
h -t 0.219 -s 2 -d 3 -p cbr -e 500 -c 0 -i 5 -a 0 -x {1.0 4.0 -1 ------- null}
+ -t 0.22 -s 1 -d 2 -p cbr -e 500 -c 0 -i 10 -a 0 -x {1.0 4.0 4 ------- null}
- -t 0.22 -s 1 -d 2 -p cbr -e 500 -c 0 -i 10 -a 0 -x {1.0 4.0 4 ------- null}
h -t 0.22 -s 1 -d 2 -p cbr -e 500 -c 0 -i 10 -a 0 -x {1.0 4.0 -1 ------- null}
r -t 0.224 -s 1 -d 2 -p cbr -e 500 -c 0 -i 7 -a 0 -x {1.0 4.0 2 ------- null}
+ -t 0.224 -s 2 -d 3 -p cbr -e 500 -c 0 -i 7 -a 0 -x {1.0 4.0 2 ------- null}
- -t 0.224 -s 2 -d 3 -p cbr -e 500 -c 0 -i 7 -a 0 -x {1.0 4.0 2 ------- null}
h -t 0.224 -s 2 -d 3 -p cbr -e 500 -c 0 -i 7 -a 0 -x {1.0 4.0 -1 ------- null}
r -t 0.224906666666667 -s 5 -d 3 -p ack -e 40 -c 0 -i 8 -a 0 -x {5.0 0.0 2 ------- null}
+ -t 0.224906666666667 -s 3 -d 2 -p ack -e 40 -c 0 -i 8 -a 0 -x {5.0 0.0 2 ------- null}
- -t 0.224906666666667 -s 3 -d 2 -p ack -e 40 -c 0 -i 8 -a 0 -x {5.0 0.0 2 ------- null}
h -t 0.224906666666667 -s 3 -d 2 -p ack -e 40 -c 0 -i 8 -a 0 -x {5.0 0.0 -1 ------- null}
+ -t 0.225 -s 1 -d 2 -p cbr -e 500 -c 0 -i 11 -a 0 -x {1.0 4.0 5 ------- null}
- -t 0.225 -s 1 -d 2 -p cbr -e 500 -c 0 -i 11 -a 0 -x {1.0 4.0 5 ------- null}
h -t 0.225 -s 1 -d 2 -p cbr -e 500 -c 0 -i 11 -a 0 -x {1.0 4.0 -1 ------- null}
r -t 0.225333333333333 -s 2 -d 3 -p cbr -e 500 -c 0 -i 4 -a 0 -x {1.0 4.0 0 ------- null}
+ -t 0.225333333333333 -s 3 -d 4 -p cbr -e 500 -c 0 -i 4 -a 0 -x {1.0 4.0 0 ------- null}
- -t 0.225333333333333 -s 3 -d 4 -p cbr -e 500 -c 0 -i 4 -a 0 -x {1.0 4.0 0 ------- null}
h -t 0.225333333333333 -s 3 -d 4 -p cbr -e 500 -c 0 -i 4 -a 0 -x {1.0 4.0 -1 ------- null}
r -t 0.226693333333333 -s 3 -d 2 -p ack -e 40 -c 0 -i 6 -a 0 -x {5.0 0.0 1 ------- null}
+ -t 0.226693333333333 -s 2 -d 0 -p ack -e 40 -c 0 -i 6 -a 0 -x {5.0 0.0 1 ------- null}
- -t 0.226693333333333 -s 2 -d 0 -p ack -e 40 -c 0 -i 6 -a 0 -x {5.0 0.0 1 ------- null}
h -t 0.226693333333333 -s 2 -d 0 -p ack -e 40 -c 0 -i 6 -a 0 -x {5.0 0.0 -1 ------- null}
r -t 0.229 -s 1 -d 2 -p cbr -e 500 -c 0 -i 9 -a 0 -x {1.0 4.0 3 ------- null}
+ -t 0.229 -s 2 -d 3 -p cbr -e 500 -c 0 -i 9 -a 0 -x {1.0 4.0 3 ------- null}
- -t 0.229 -s 2 -d 3 -p cbr -e 500 -c 0 -i 9 -a 0 -x {1.0 4.0 3 ------- null}
h -t 0.229 -s 2 -d 3 -p cbr -e 500 -c 0 -i 9 -a 0 -x {1.0 4.0 -1 ------- null}
+ -t 0.23 -s 1 -d 2 -p cbr -e 500 -c 0 -i 12 -a 0 -x {1.0 4.0 6 ------- null}
- -t 0.23 -s 1 -d 2 -p cbr -e 500 -c 0 -i 12 -a 0 -x {1.0 4.0 6 ------- null}
h -t 0.23 -s 1 -d 2 -p cbr -e 500 -c 0 -i 12 -a 0 -x {1.0 4.0 -1 ------- null}
r -t 0.230333333333333 -s 2 -d 3 -p cbr -e 500 -c 0 -i 5 -a 0 -x {1.0 4.0 1 ------- null}
+ -t 0.230333333333333 -s 3 -d 4 -p cbr -e 500 -c 0 -i 5 -a 0 -x {1.0 4.0 1 ------- null}
- -t 0.230333333333333 -s 3 -d 4 -p cbr -e 500 -c 0 -i 5 -a 0 -x {1.0 4.0 1 ------- null}
h -t 0.230333333333333 -s 3 -d 4 -p cbr -e 500 -c 0 -i 5 -a 0 -x {1.0 4.0 -1 ------- null}
r -t 0.234 -s 1 -d 2 -p cbr -e 500 -c 0 -i 10 -a 0 -x {1.0 4.0 4 ------- null}
+ -t 0.234 -s 2 -d 3 -p cbr -e 500 -c 0 -i 10 -a 0 -x {1.0 4.0 4 ------- null}
- -t 0.234 -s 2 -d 3 -p cbr -e 500 -c 0 -i 10 -a 0 -x {1.0 4.0 4 ------- null}
h -t 0.234 -s 2 -d 3 -p cbr -e 500 -c 0 -i 10 -a 0 -x {1.0 4.0 -1 ------- null}
+ -t 0.235 -s 1 -d 2 -p cbr -e 500 -c 0 -i 13 -a 0 -x {1.0 4.0 7 ------- null}
- -t 0.235 -s 1 -d 2 -p cbr -e 500 -c 0 -i 13 -a 0 -x {1.0 4.0 7 ------- null}
h -t 0.235 -s 1 -d 2 -p cbr -e 500 -c 0 -i 13 -a 0 -x {1.0 4.0 -1 ------- null}
r -t 0.235013333333333 -s 3 -d 2 -p ack -e 40 -c 0 -i 8 -a 0 -x {5.0 0.0 2 ------- null}
+ -t 0.235013333333333 -s 2 -d 0 -p ack -e 40 -c 0 -i 8 -a 0 -x {5.0 0.0 2 ------- null}
- -t 0.235013333333333 -s 2 -d 0 -p ack -e 40 -c 0 -i 8 -a 0 -x {5.0 0.0 2 ------- null}
h -t 0.235013333333333 -s 2 -d 0 -p ack -e 40 -c 0 -i 8 -a 0 -x {5.0 0.0 -1 ------- null}
r -t 0.235333333333333 -s 2 -d 3 -p cbr -e 500 -c 0 -i 7 -a 0 -x {1.0 4.0 2 ------- null}
+ -t 0.235333333333333 -s 3 -d 4 -p cbr -e 500 -c 0 -i 7 -a 0 -x {1.0 4.0 2 ------- null}
- -t 0.235333333333333 -s 3 -d 4 -p cbr -e 500 -c 0 -i 7 -a 0 -x {1.0 4.0 2 ------- null}
h -t 0.235333333333333 -s 3 -d 4 -p cbr -e 500 -c 0 -i 7 -a 0 -x {1.0 4.0 -1 ------- null}
r -t 0.237013333333333 -s 2 -d 0 -p ack -e 40 -c 0 -i 6 -a 0 -x {5.0 0.0 1 ------- null}
+ -t 0.237013333333333 -s 0 -d 2 -p tcp -e 1040 -c 0 -i 14 -a 0 -x {0.0 5.0 3 ------- null}
- -t 0.237013333333333 -s 0 -d 2 -p tcp -e 1040 -c 0 -i 14 -a 0 -x {0.0 5.0 3 ------- null}
h -t 0.237013333333333 -s 0 -d 2 -p tcp -e 1040 -c 0 -i 14 -a 0 -x {0.0 5.0 -1 ------- null}
+ -t 0.237013333333333 -s 0 -d 2 -p tcp -e 1040 -c 0 -i 15 -a 0 -x {0.0 5.0 4 ------- null}
r -t 0.237333333333333 -s 3 -d 4 -p cbr -e 500 -c 0 -i 4 -a 0 -x {1.0 4.0 0 ------- null}
r -t 0.239 -s 1 -d 2 -p cbr -e 500 -c 0 -i 11 -a 0 -x {1.0 4.0 5 ------- null}
+ -t 0.239 -s 2 -d 3 -p cbr -e 500 -c 0 -i 11 -a 0 -x {1.0 4.0 5 ------- null}
- -t 0.239 -s 2 -d 3 -p cbr -e 500 -c 0 -i 11 -a 0 -x {1.0 4.0 5 ------- null}
h -t 0.239 -s 2 -d 3 -p cbr -e 500 -c 0 -i 11 -a 0 -x {1.0 4.0 -1 ------- null}
+ -t 0.24 -s 1 -d 2 -p cbr -e 500 -c 0 -i 16 -a 0 -x {1.0 4.0 8 ------- null}
- -t 0.24 -s 1 -d 2 -p cbr -e 500 -c 0 -i 16 -a 0 -x {1.0 4.0 8 ------- null}
h -t 0.24 -s 1 -d 2 -p cbr -e 500 -c 0 -i 16 -a 0 -x {1.0 4.0 -1 ------- null}
r -t 0.240333333333333 -s 2 -d 3 -p cbr -e 500 -c 0 -i 9 -a 0 -x {1.0 4.0 3 ------- null}
+ -t 0.240333333333333 -s 3 -d 4 -p cbr -e 500 -c 0 -i 9 -a 0 -x {1.0 4.0 3 ------- null}
- -t 0.240333333333333 -s 3 -d 4 -p cbr -e 500 -c 0 -i 9 -a 0 -x {1.0 4.0 3 ------- null}
h -t 0.240333333333333 -s 3 -d 4 -p cbr -e 500 -c 0 -i 9 -a 0 -x {1.0 4.0 -1 ------- null}
r -t 0.242333333333333 -s 3 -d 4 -p cbr -e 500 -c 0 -i 5 -a 0 -x {1.0 4.0 1 ------- null}
r -t 0.244 -s 1 -d 2 -p cbr -e 500 -c 0 -i 12 -a 0 -x {1.0 4.0 6 ------- null}
+ -t 0.244 -s 2 -d 3 -p cbr -e 500 -c 0 -i 12 -a 0 -x {1.0 4.0 6 ------- null}
- -t 0.244 -s 2 -d 3 -p cbr -e 500 -c 0 -i 12 -a 0 -x {1.0 4.0 6 ------- null}
h -t 0.244 -s 2 -d 3 -p cbr -e 500 -c 0 -i 12 -a 0 -x {1.0 4.0 -1 ------- null}
+ -t 0.245 -s 1 -d 2 -p cbr -e 500 -c 0 -i 17 -a 0 -x {1.0 4.0 9 ------- null}
- -t 0.245 -s 1 -d 2 -p cbr -e 500 -c 0 -i 17 -a 0 -x {1.0 4.0 9 ------- null}
h -t 0.245 -s 1 -d 2 -p cbr -e 500 -c 0 -i 17 -a 0 -x {1.0 4.0 -1 ------- null}
r -t 0.245333333333333 -s 2 -d 0 -p ack -e 40 -c 0 -i 8 -a 0 -x {5.0 0.0 2 ------- null}
+ -t 0.245333333333333 -s 0 -d 2 -p tcp -e 1040 -c 0 -i 18 -a 0 -x {0.0 5.0 5 ------- null}
+ -t 0.245333333333333 -s 0 -d 2 -p tcp -e 1040 -c 0 -i 19 -a 0 -x {0.0 5.0 6 ------- null}
- -t 0.245333333333333 -s 0 -d 2 -p tcp -e 1040 -c 0 -i 15 -a 0 -x {0.0 5.0 4 ------- null}
h -t 0.245333333333333 -s 0 -d 2 -p tcp -e 1040 -c 0 -i 15 -a 0 -x {0.0 5.0 -1 ------- null}
r -t 0.245333333333333 -s 2 -d 3 -p cbr -e 500 -c 0 -i 10 -a 0 -x {1.0 4.0 4 ------- null}
+ -t 0.245333333333333 -s 3 -d 4 -p cbr -e 500 -c 0 -i 10 -a 0 -x {1.0 4.0 4 ------- null}
- -t 0.245333333333333 -s 3 -d 4 -p cbr -e 500 -c 0 -i 10 -a 0 -x {1.0 4.0 4 ------- null}
h -t 0.245333333333333 -s 3 -d 4 -p cbr -e 500 -c 0 -i 10 -a 0 -x {1.0 4.0 -1 ------- null}
r -t 0.247333333333333 -s 3 -d 4 -p cbr -e 500 -c 0 -i 7 -a 0 -x {1.0 4.0 2 ------- null}
r -t 0.249 -s 1 -d 2 -p cbr -e 500 -c 0 -i 13 -a 0 -x {1.0 4.0 7 ------- null}
+ -t 0.249 -s 2 -d 3 -p cbr -e 500 -c 0 -i 13 -a 0 -x {1.0 4.0 7 ------- null}
- -t 0.249 -s 2 -d 3 -p cbr -e 500 -c 0 -i 13 -a 0 -x {1.0 4.0 7 ------- null}
h -t 0.249 -s 2 -d 3 -p cbr -e 500 -c 0 -i 13 -a 0 -x {1.0 4.0 -1 ------- null}
+ -t 0.25 -s 1 -d 2 -p cbr -e 500 -c 0 -i 20 -a 0 -x {1.0 4.0 10 ------- null}
- -t 0.25 -s 1 -d 2 -p cbr -e 500 -c 0 -i 20 -a 0 -x {1.0 4.0 10 ------- null}
h -t 0.25 -s 1 -d 2 -p cbr -e 500 -c 0 -i 20 -a 0 -x {1.0 4.0 -1 ------- null}
r -t 0.250333333333333 -s 2 -d 3 -p cbr -e 500 -c 0 -i 11 -a 0 -x {1.0 4.0 5 ------- null}
+ -t 0.250333333333333 -s 3 -d 4 -p cbr -e 500 -c 0 -i 11 -a 0 -x {1.0 4.0 5 ------- null}
- -t 0.250333333333333 -s 3 -d 4 -p cbr -e 500 -c 0 -i 11 -a 0 -x {1.0 4.0 5 ------- null}
h -t 0.250333333333333 -s 3 -d 4 -p cbr -e 500 -c 0 -i 11 -a 0 -x {1.0 4.0 -1 ------- null}
r -t 0.252333333333333 -s 3 -d 4 -p cbr -e 500 -c 0 -i 9 -a 0 -x {1.0 4.0 3 ------- null}
- -t 0.253653333333333 -s 0 -d 2 -p tcp -e 1040 -c 0 -i 18 -a 0 -x {0.0 5.0 5 ------- null}
h -t 0.253653333333333 -s 0 -d 2 -p tcp -e 1040 -c 0 -i 18 -a 0 -x {0.0 5.0 -1 ------- null}
r -t 0.254 -s 1 -d 2 -p cbr -e 500 -c 0 -i 16 -a 0 -x {1.0 4.0 8 ------- null}
+ -t 0.254 -s 2 -d 3 -p cbr -e 500 -c 0 -i 16 -a 0 -x {1.0 4.0 8 ------- null}
- -t 0.254 -s 2 -d 3 -p cbr -e 500 -c 0 -i 16 -a 0 -x {1.0 4.0 8 ------- null}
h -t 0.254 -s 2 -d 3 -p cbr -e 500 -c 0 -i 16 -a 0 -x {1.0 4.0 -1 ------- null}
+ -t 0.255 -s 1 -d 2 -p cbr -e 500 -c 0 -i 21 -a 0 -x {1.0 4.0 11 ------- null}
- -t 0.255 -s 1 -d 2 -p cbr -e 500 -c 0 -i 21 -a 0 -x {1.0 4.0 11 ------- null}
h -t 0.255 -s 1 -d 2 -p cbr -e 500 -c 0 -i 21 -a 0 -x {1.0 4.0 -1 ------- null}
r -t 0.255333333333333 -s 0 -d 2 -p tcp -e 1040 -c 0 -i 14 -a 0 -x {0.0 5.0 3 ------- null}
+ -t 0.255333333333333 -s 2 -d 3 -p tcp -e 1040 -c 0 -i 14 -a 0 -x {0.0 5.0 3 ------- null}
r -t 0.255333333333333 -s 2 -d 3 -p cbr -e 500 -c 0 -i 12 -a 0 -x {1.0 4.0 6 ------- null}
+ -t 0.255333333333333 -s 3 -d 4 -p cbr -e 500 -c 0 -i 12 -a 0 -x {1.0 4.0 6 ------- null}
- -t 0.255333333333333 -s 3 -d 4 -p cbr -e 500 -c 0 -i 12 -a 0 -x {1.0 4.0 6 ------- null}
h -t 0.255333333333333 -s 3 -d 4 -p cbr -e 500 -c 0 -i 12 -a 0 -x {1.0 4.0 -1 ------- null}
- -t 0.255333333333333 -s 2 -d 3 -p tcp -e 1040 -c 0 -i 14 -a 0 -x {0.0 5.0 3 ------- null}
h -t 0.255333333333333 -s 2 -d 3 -p tcp -e 1040 -c 0 -i 14 -a 0 -x {0.0 5.0 -1 ------- null}
r -t 0.257333333333333 -s 3 -d 4 -p cbr -e 500 -c 0 -i 10 -a 0 -x {1.0 4.0 4 ------- null}
r -t 0.259 -s 1 -d 2 -p cbr -e 500 -c 0 -i 17 -a 0 -x {1.0 4.0 9 ------- null}
+ -t 0.259 -s 2 -d 3 -p cbr -e 500 -c 0 -i 17 -a 0 -x {1.0 4.0 9 ------- null}
- -t 0.259 -s 2 -d 3 -p cbr -e 500 -c 0 -i 17 -a 0 -x {1.0 4.0 9 ------- null}
h -t 0.259 -s 2 -d 3 -p cbr -e 500 -c 0 -i 17 -a 0 -x {1.0 4.0 -1 ------- null}
+ -t 0.26 -s 1 -d 2 -p cbr -e 500 -c 0 -i 22 -a 0 -x {1.0 4.0 12 ------- null}
- -t 0.26 -s 1 -d 2 -p cbr -e 500 -c 0 -i 22 -a 0 -x {1.0 4.0 12 ------- null}
h -t 0.26 -s 1 -d 2 -p cbr -e 500 -c 0 -i 22 -a 0 -x {1.0 4.0 -1 ------- null}
r -t 0.260333333333333 -s 2 -d 3 -p cbr -e 500 -c 0 -i 13 -a 0 -x {1.0 4.0 7 ------- null}
+ -t 0.260333333333333 -s 3 -d 4 -p cbr -e 500 -c 0 -i 13 -a 0 -x {1.0 4.0 7 ------- null}
- -t 0.260333333333333 -s 3 -d 4 -p cbr -e 500 -c 0 -i 13 -a 0 -x {1.0 4.0 7 ------- null}
h -t 0.260333333333333 -s 3 -d 4 -p cbr -e 500 -c 0 -i 13 -a 0 -x {1.0 4.0 -1 ------- null}
- -t 0.261973333333333 -s 0 -d 2 -p tcp -e 1040 -c 0 -i 19 -a 0 -x {0.0 5.0 6 ------- null}
h -t 0.261973333333333 -s 0 -d 2 -p tcp -e 1040 -c 0 -i 19 -a 0 -x {0.0 5.0 -1 ------- null}
r -t 0.262333333333333 -s 3 -d 4 -p cbr -e 500 -c 0 -i 11 -a 0 -x {1.0 4.0 5 ------- null}
r -t 0.263653333333333 -s 0 -d 2 -p tcp -e 1040 -c 0 -i 15 -a 0 -x {0.0 5.0 4 ------- null}
+ -t 0.263653333333333 -s 2 -d 3 -p tcp -e 1040 -c 0 -i 15 -a 0 -x {0.0 5.0 4 ------- null}
- -t 0.263653333333333 -s 2 -d 3 -p tcp -e 1040 -c 0 -i 15 -a 0 -x {0.0 5.0 4 ------- null}
h -t 0.263653333333333 -s 2 -d 3 -p tcp -e 1040 -c 0 -i 15 -a 0 -x {0.0 5.0 -1 ------- null}
r -t 0.264 -s 1 -d 2 -p cbr -e 500 -c 0 -i 20 -a 0 -x {1.0 4.0 10 ------- null}
+ -t 0.264 -s 2 -d 3 -p cbr -e 500 -c 0 -i 20 -a 0 -x {1.0 4.0 10 ------- null}
+ -t 0.265 -s 1 -d 2 -p cbr -e 500 -c 0 -i 23 -a 0 -x {1.0 4.0 13 ------- null}
- -t 0.265 -s 1 -d 2 -p cbr -e 500 -c 0 -i 23 -a 0 -x {1.0 4.0 13 ------- null}
h -t 0.265 -s 1 -d 2 -p cbr -e 500 -c 0 -i 23 -a 0 -x {1.0 4.0 -1 ------- null}
r -t 0.265333333333333 -s 2 -d 3 -p cbr -e 500 -c 0 -i 16 -a 0 -x {1.0 4.0 8 ------- null}
+ -t 0.265333333333333 -s 3 -d 4 -p cbr -e 500 -c 0 -i 16 -a 0 -x {1.0 4.0 8 ------- null}
- -t 0.265333333333333 -s 3 -d 4 -p cbr -e 500 -c 0 -i 16 -a 0 -x {1.0 4.0 8 ------- null}
h -t 0.265333333333333 -s 3 -d 4 -p cbr -e 500 -c 0 -i 16 -a 0 -x {1.0 4.0 -1 ------- null}
- -t 0.266426666666667 -s 2 -d 3 -p cbr -e 500 -c 0 -i 20 -a 0 -x {1.0 4.0 10 ------- null}
h -t 0.266426666666667 -s 2 -d 3 -p cbr -e 500 -c 0 -i 20 -a 0 -x {1.0 4.0 -1 ------- null}
r -t 0.267333333333333 -s 3 -d 4 -p cbr -e 500 -c 0 -i 12 -a 0 -x {1.0 4.0 6 ------- null}
r -t 0.268106666666667 -s 2 -d 3 -p tcp -e 1040 -c 0 -i 14 -a 0 -x {0.0 5.0 3 ------- null}
+ -t 0.268106666666667 -s 3 -d 5 -p tcp -e 1040 -c 0 -i 14 -a 0 -x {0.0 5.0 3 ------- null}
- -t 0.268106666666667 -s 3 -d 5 -p tcp -e 1040 -c 0 -i 14 -a 0 -x {0.0 5.0 3 ------- null}
h -t 0.268106666666667 -s 3 -d 5 -p tcp -e 1040 -c 0 -i 14 -a 0 -x {0.0 5.0 -1 ------- null}
r -t 0.269 -s 1 -d 2 -p cbr -e 500 -c 0 -i 21 -a 0 -x {1.0 4.0 11 ------- null}
+ -t 0.269 -s 2 -d 3 -p cbr -e 500 -c 0 -i 21 -a 0 -x {1.0 4.0 11 ------- null}
- -t 0.269 -s 2 -d 3 -p cbr -e 500 -c 0 -i 21 -a 0 -x {1.0 4.0 11 ------- null}
h -t 0.269 -s 2 -d 3 -p cbr -e 500 -c 0 -i 21 -a 0 -x {1.0 4.0 -1 ------- null}
+ -t 0.27 -s 1 -d 2 -p cbr -e 500 -c 0 -i 24 -a 0 -x {1.0 4.0 14 ------- null}
- -t 0.27 -s 1 -d 2 -p cbr -e 500 -c 0 -i 24 -a 0 -x {1.0 4.0 14 ------- null}
h -t 0.27 -s 1 -d 2 -p cbr -e 500 -c 0 -i 24 -a 0 -x {1.0 4.0 -1 ------- null}
r -t 0.270333333333333 -s 2 -d 3 -p cbr -e 500 -c 0 -i 17 -a 0 -x {1.0 4.0 9 ------- null}
+ -t 0.270333333333333 -s 3 -d 4 -p cbr -e 500 -c 0 -i 17 -a 0 -x {1.0 4.0 9 ------- null}
- -t 0.270333333333333 -s 3 -d 4 -p cbr -e 500 -c 0 -i 17 -a 0 -x {1.0 4.0 9 ------- null}
h -t 0.270333333333333 -s 3 -d 4 -p cbr -e 500 -c 0 -i 17 -a 0 -x {1.0 4.0 -1 ------- null}
r -t 0.271973333333333 -s 0 -d 2 -p tcp -e 1040 -c 0 -i 18 -a 0 -x {0.0 5.0 5 ------- null}
+ -t 0.271973333333333 -s 2 -d 3 -p tcp -e 1040 -c 0 -i 18 -a 0 -x {0.0 5.0 5 ------- null}
- -t 0.271973333333333 -s 2 -d 3 -p tcp -e 1040 -c 0 -i 18 -a 0 -x {0.0 5.0 5 ------- null}
h -t 0.271973333333333 -s 2 -d 3 -p tcp -e 1040 -c 0 -i 18 -a 0 -x {0.0 5.0 -1 ------- null}
r -t 0.272333333333333 -s 3 -d 4 -p cbr -e 500 -c 0 -i 13 -a 0 -x {1.0 4.0 7 ------- null}
r -t 0.274 -s 1 -d 2 -p cbr -e 500 -c 0 -i 22 -a 0 -x {1.0 4.0 12 ------- null}
+ -t 0.274 -s 2 -d 3 -p cbr -e 500 -c 0 -i 22 -a 0 -x {1.0 4.0 12 ------- null}
- -t 0.274746666666667 -s 2 -d 3 -p cbr -e 500 -c 0 -i 22 -a 0 -x {1.0 4.0 12 ------- null}
h -t 0.274746666666667 -s 2 -d 3 -p cbr -e 500 -c 0 -i 22 -a 0 -x {1.0 4.0 -1 ------- null}
+ -t 0.275 -s 1 -d 2 -p cbr -e 500 -c 0 -i 25 -a 0 -x {1.0 4.0 15 ------- null}
- -t 0.275 -s 1 -d 2 -p cbr -e 500 -c 0 -i 25 -a 0 -x {1.0 4.0 15 ------- null}
h -t 0.275 -s 1 -d 2 -p cbr -e 500 -c 0 -i 25 -a 0 -x {1.0 4.0 -1 ------- null}
r -t 0.276426666666667 -s 2 -d 3 -p tcp -e 1040 -c 0 -i 15 -a 0 -x {0.0 5.0 4 ------- null}
+ -t 0.276426666666667 -s 3 -d 5 -p tcp -e 1040 -c 0 -i 15 -a 0 -x {0.0 5.0 4 ------- null}
- -t 0.276426666666667 -s 3 -d 5 -p tcp -e 1040 -c 0 -i 15 -a 0 -x {0.0 5.0 4 ------- null}
h -t 0.276426666666667 -s 3 -d 5 -p tcp -e 1040 -c 0 -i 15 -a 0 -x {0.0 5.0 -1 ------- null}
r -t 0.277333333333333 -s 3 -d 4 -p cbr -e 500 -c 0 -i 16 -a 0 -x {1.0 4.0 8 ------- null}
r -t 0.27776 -s 2 -d 3 -p cbr -e 500 -c 0 -i 20 -a 0 -x {1.0 4.0 10 ------- null}
+ -t 0.27776 -s 3 -d 4 -p cbr -e 500 -c 0 -i 20 -a 0 -x {1.0 4.0 10 ------- null}
- -t 0.27776 -s 3 -d 4 -p cbr -e 500 -c 0 -i 20 -a 0 -x {1.0 4.0 10 ------- null}
h -t 0.27776 -s 3 -d 4 -p cbr -e 500 -c 0 -i 20 -a 0 -x {1.0 4.0 -1 ------- null}
r -t 0.279 -s 1 -d 2 -p cbr -e 500 -c 0 -i 23 -a 0 -x {1.0 4.0 13 ------- null}
+ -t 0.279 -s 2 -d 3 -p cbr -e 500 -c 0 -i 23 -a 0 -x {1.0 4.0 13 ------- null}
- -t 0.279 -s 2 -d 3 -p cbr -e 500 -c 0 -i 23 -a 0 -x {1.0 4.0 13 ------- null}
h -t 0.279 -s 2 -d 3 -p cbr -e 500 -c 0 -i 23 -a 0 -x {1.0 4.0 -1 ------- null}
+ -t 0.28 -s 1 -d 2 -p cbr -e 500 -c 0 -i 26 -a 0 -x {1.0 4.0 16 ------- null}
- -t 0.28 -s 1 -d 2 -p cbr -e 500 -c 0 -i 26 -a 0 -x {1.0 4.0 16 ------- null}
h -t 0.28 -s 1 -d 2 -p cbr -e 500 -c 0 -i 26 -a 0 -x {1.0 4.0 -1 ------- null}
r -t 0.280293333333333 -s 0 -d 2 -p tcp -e 1040 -c 0 -i 19 -a 0 -x {0.0 5.0 6 ------- null}
+ -t 0.280293333333333 -s 2 -d 3 -p tcp -e 1040 -c 0 -i 19 -a 0 -x {0.0 5.0 6 ------- null}
r -t 0.280333333333333 -s 2 -d 3 -p cbr -e 500 -c 0 -i 21 -a 0 -x {1.0 4.0 11 ------- null}
+ -t 0.280333333333333 -s 3 -d 4 -p cbr -e 500 -c 0 -i 21 -a 0 -x {1.0 4.0 11 ------- null}
- -t 0.280333333333333 -s 3 -d 4 -p cbr -e 500 -c 0 -i 21 -a 0 -x {1.0 4.0 11 ------- null}
h -t 0.280333333333333 -s 3 -d 4 -p cbr -e 500 -c 0 -i 21 -a 0 -x {1.0 4.0 -1 ------- null}
- -t 0.280333333333333 -s 2 -d 3 -p tcp -e 1040 -c 0 -i 19 -a 0 -x {0.0 5.0 6 ------- null}
h -t 0.280333333333333 -s 2 -d 3 -p tcp -e 1040 -c 0 -i 19 -a 0 -x {0.0 5.0 -1 ------- null}
r -t 0.282266666666667 -s 3 -d 5 -p tcp -e 1040 -c 0 -i 14 -a 0 -x {0.0 5.0 3 ------- null}
+ -t 0.282266666666667 -s 5 -d 3 -p ack -e 40 -c 0 -i 27 -a 0 -x {5.0 0.0 3 ------- null}
- -t 0.282266666666667 -s 5 -d 3 -p ack -e 40 -c 0 -i 27 -a 0 -x {5.0 0.0 3 ------- null}
h -t 0.282266666666667 -s 5 -d 3 -p ack -e 40 -c 0 -i 27 -a 0 -x {5.0 0.0 -1 ------- null}
r -t 0.282333333333333 -s 3 -d 4 -p cbr -e 500 -c 0 -i 17 -a 0 -x {1.0 4.0 9 ------- null}
r -t 0.284 -s 1 -d 2 -p cbr -e 500 -c 0 -i 24 -a 0 -x {1.0 4.0 14 ------- null}
+ -t 0.284 -s 2 -d 3 -p cbr -e 500 -c 0 -i 24 -a 0 -x {1.0 4.0 14 ------- null}
- -t 0.284 -s 2 -d 3 -p cbr -e 500 -c 0 -i 24 -a 0 -x {1.0 4.0 14 ------- null}
h -t 0.284 -s 2 -d 3 -p cbr -e 500 -c 0 -i 24 -a 0 -x {1.0 4.0 -1 ------- null}
r -t 0.284746666666667 -s 2 -d 3 -p tcp -e 1040 -c 0 -i 18 -a 0 -x {0.0 5.0 5 ------- null}
+ -t 0.284746666666667 -s 3 -d 5 -p tcp -e 1040 -c 0 -i 18 -a 0 -x {0.0 5.0 5 ------- null}
- -t 0.284746666666667 -s 3 -d 5 -p tcp -e 1040 -c 0 -i 18 -a 0 -x {0.0 5.0 5 ------- null}
h -t 0.284746666666667 -s 3 -d 5 -p tcp -e 1040 -c 0 -i 18 -a 0 -x {0.0 5.0 -1 ------- null}
+ -t 0.285 -s 1 -d 2 -p cbr -e 500 -c 0 -i 28 -a 0 -x {1.0 4.0 17 ------- null}
- -t 0.285 -s 1 -d 2 -p cbr -e 500 -c 0 -i 28 -a 0 -x {1.0 4.0 17 ------- null}
h -t 0.285 -s 1 -d 2 -p cbr -e 500 -c 0 -i 28 -a 0 -x {1.0 4.0 -1 ------- null}
r -t 0.28608 -s 2 -d 3 -p cbr -e 500 -c 0 -i 22 -a 0 -x {1.0 4.0 12 ------- null}
+ -t 0.28608 -s 3 -d 4 -p cbr -e 500 -c 0 -i 22 -a 0 -x {1.0 4.0 12 ------- null}
- -t 0.28608 -s 3 -d 4 -p cbr -e 500 -c 0 -i 22 -a 0 -x {1.0 4.0 12 ------- null}
h -t 0.28608 -s 3 -d 4 -p cbr -e 500 -c 0 -i 22 -a 0 -x {1.0 4.0 -1 ------- null}
r -t 0.289 -s 1 -d 2 -p cbr -e 500 -c 0 -i 25 -a 0 -x {1.0 4.0 15 ------- null}
+ -t 0.289 -s 2 -d 3 -p cbr -e 500 -c 0 -i 25 -a 0 -x {1.0 4.0 15 ------- null}
- -t 0.289 -s 2 -d 3 -p cbr -e 500 -c 0 -i 25 -a 0 -x {1.0 4.0 15 ------- null}
h -t 0.289 -s 2 -d 3 -p cbr -e 500 -c 0 -i 25 -a 0 -x {1.0 4.0 -1 ------- null}
r -t 0.28976 -s 3 -d 4 -p cbr -e 500 -c 0 -i 20 -a 0 -x {1.0 4.0 10 ------- null}
+ -t 0.29 -s 1 -d 2 -p cbr -e 500 -c 0 -i 29 -a 0 -x {1.0 4.0 18 ------- null}
- -t 0.29 -s 1 -d 2 -p cbr -e 500 -c 0 -i 29 -a 0 -x {1.0 4.0 18 ------- null}
h -t 0.29 -s 1 -d 2 -p cbr -e 500 -c 0 -i 29 -a 0 -x {1.0 4.0 -1 ------- null}
r -t 0.290333333333333 -s 2 -d 3 -p cbr -e 500 -c 0 -i 23 -a 0 -x {1.0 4.0 13 ------- null}
+ -t 0.290333333333333 -s 3 -d 4 -p cbr -e 500 -c 0 -i 23 -a 0 -x {1.0 4.0 13 ------- null}
- -t 0.290333333333333 -s 3 -d 4 -p cbr -e 500 -c 0 -i 23 -a 0 -x {1.0 4.0 13 ------- null}
h -t 0.290333333333333 -s 3 -d 4 -p cbr -e 500 -c 0 -i 23 -a 0 -x {1.0 4.0 -1 ------- null}
r -t 0.290586666666667 -s 3 -d 5 -p tcp -e 1040 -c 0 -i 15 -a 0 -x {0.0 5.0 4 ------- null}
+ -t 0.290586666666667 -s 5 -d 3 -p ack -e 40 -c 0 -i 30 -a 0 -x {5.0 0.0 4 ------- null}
- -t 0.290586666666667 -s 5 -d 3 -p ack -e 40 -c 0 -i 30 -a 0 -x {5.0 0.0 4 ------- null}
h -t 0.290586666666667 -s 5 -d 3 -p ack -e 40 -c 0 -i 30 -a 0 -x {5.0 0.0 -1 ------- null}
r -t 0.292333333333333 -s 3 -d 4 -p cbr -e 500 -c 0 -i 21 -a 0 -x {1.0 4.0 11 ------- null}
r -t 0.292426666666667 -s 5 -d 3 -p ack -e 40 -c 0 -i 27 -a 0 -x {5.0 0.0 3 ------- null}
+ -t 0.292426666666667 -s 3 -d 2 -p ack -e 40 -c 0 -i 27 -a 0 -x {5.0 0.0 3 ------- null}
- -t 0.292426666666667 -s 3 -d 2 -p ack -e 40 -c 0 -i 27 -a 0 -x {5.0 0.0 3 ------- null}
h -t 0.292426666666667 -s 3 -d 2 -p ack -e 40 -c 0 -i 27 -a 0 -x {5.0 0.0 -1 ------- null}
r -t 0.293106666666667 -s 2 -d 3 -p tcp -e 1040 -c 0 -i 19 -a 0 -x {0.0 5.0 6 ------- null}
+ -t 0.293106666666667 -s 3 -d 5 -p tcp -e 1040 -c 0 -i 19 -a 0 -x {0.0 5.0 6 ------- null}
- -t 0.293106666666667 -s 3 -d 5 -p tcp -e 1040 -c 0 -i 19 -a 0 -x {0.0 5.0 6 ------- null}
h -t 0.293106666666667 -s 3 -d 5 -p tcp -e 1040 -c 0 -i 19 -a 0 -x {0.0 5.0 -1 ------- null}
r -t 0.294 -s 1 -d 2 -p cbr -e 500 -c 0 -i 26 -a 0 -x {1.0 4.0 16 ------- null}
+ -t 0.294 -s 2 -d 3 -p cbr -e 500 -c 0 -i 26 -a 0 -x {1.0 4.0 16 ------- null}
- -t 0.294 -s 2 -d 3 -p cbr -e 500 -c 0 -i 26 -a 0 -x {1.0 4.0 16 ------- null}
h -t 0.294 -s 2 -d 3 -p cbr -e 500 -c 0 -i 26 -a 0 -x {1.0 4.0 -1 ------- null}
+ -t 0.295 -s 1 -d 2 -p cbr -e 500 -c 0 -i 31 -a 0 -x {1.0 4.0 19 ------- null}
- -t 0.295 -s 1 -d 2 -p cbr -e 500 -c 0 -i 31 -a 0 -x {1.0 4.0 19 ------- null}
h -t 0.295 -s 1 -d 2 -p cbr -e 500 -c 0 -i 31 -a 0 -x {1.0 4.0 -1 ------- null}
r -t 0.295333333333333 -s 2 -d 3 -p cbr -e 500 -c 0 -i 24 -a 0 -x {1.0 4.0 14 ------- null}
+ -t 0.295333333333333 -s 3 -d 4 -p cbr -e 500 -c 0 -i 24 -a 0 -x {1.0 4.0 14 ------- null}
- -t 0.295333333333333 -s 3 -d 4 -p cbr -e 500 -c 0 -i 24 -a 0 -x {1.0 4.0 14 ------- null}
h -t 0.295333333333333 -s 3 -d 4 -p cbr -e 500 -c 0 -i 24 -a 0 -x {1.0 4.0 -1 ------- null}
r -t 0.29808 -s 3 -d 4 -p cbr -e 500 -c 0 -i 22 -a 0 -x {1.0 4.0 12 ------- null}
r -t 0.298906666666667 -s 3 -d 5 -p tcp -e 1040 -c 0 -i 18 -a 0 -x {0.0 5.0 5 ------- null}
+ -t 0.298906666666667 -s 5 -d 3 -p ack -e 40 -c 0 -i 32 -a 0 -x {5.0 0.0 5 ------- null}
- -t 0.298906666666667 -s 5 -d 3 -p ack -e 40 -c 0 -i 32 -a 0 -x {5.0 0.0 5 ------- null}
h -t 0.298906666666667 -s 5 -d 3 -p ack -e 40 -c 0 -i 32 -a 0 -x {5.0 0.0 -1 ------- null}
r -t 0.299 -s 1 -d 2 -p cbr -e 500 -c 0 -i 28 -a 0 -x {1.0 4.0 17 ------- null}
+ -t 0.299 -s 2 -d 3 -p cbr -e 500 -c 0 -i 28 -a 0 -x {1.0 4.0 17 ------- null}
- -t 0.299 -s 2 -d 3 -p cbr -e 500 -c 0 -i 28 -a 0 -x {1.0 4.0 17 ------- null}
h -t 0.299 -s 2 -d 3 -p cbr -e 500 -c 0 -i 28 -a 0 -x {1.0 4.0 -1 ------- null}
+ -t 0.3 -s 1 -d 2 -p cbr -e 500 -c 0 -i 33 -a 0 -x {1.0 4.0 20 ------- null}
- -t 0.3 -s 1 -d 2 -p cbr -e 500 -c 0 -i 33 -a 0 -x {1.0 4.0 20 ------- null}
h -t 0.3 -s 1 -d 2 -p cbr -e 500 -c 0 -i 33 -a 0 -x {1.0 4.0 -1 ------- null}
r -t 0.300333333333333 -s 2 -d 3 -p cbr -e 500 -c 0 -i 25 -a 0 -x {1.0 4.0 15 ------- null}