+ 0.1 0 2 tcp 40 ------- 0 0.0 5.0 0 0
- 0.1 0 2 tcp 40 ------- 0 0.0 5.0 0 0
r 0.11032 0 2 tcp 40 ------- 0 0.0 5.0 0 0
+ 0.11032 2 3 tcp 40 ------- 0 0.0 5.0 0 0
- 0.11032 2 3 tcp 40 ------- 0 0.0 5.0 0 0
r 0.120427 2 3 tcp 40 ------- 0 0.0 5.0 0 0
+ 0.120427 3 5 tcp 40 ------- 0 0.0 5.0 0 0
- 0.120427 3 5 tcp 40 ------- 0 0.0 5.0 0 0
r 0.130587 3 5 tcp 40 ------- 0 0.0 5.0 0 0
+ 0.130587 5 3 ack 40 ------- 0 5.0 0.0 0 1
- 0.130587 5 3 ack 40 ------- 0 5.0 0.0 0 1
r 0.140747 5 3 ack 40 ------- 0 5.0 0.0 0 1
+ 0.140747 3 2 ack 40 ------- 0 5.0 0.0 0 1
- 0.140747 3 2 ack 40 ------- 0 5.0 0.0 0 1
r 0.150853 3 2 ack 40 ------- 0 5.0 0.0 0 1
+ 0.150853 2 0 ack 40 ------- 0 5.0 0.0 0 1
- 0.150853 2 0 ack 40 ------- 0 5.0 0.0 0 1
r 0.161173 2 0 ack 40 ------- 0 5.0 0.0 0 1
+ 0.161173 0 2 tcp 1040 ------- 0 0.0 5.0 1 2
- 0.161173 0 2 tcp 1040 ------- 0 0.0 5.0 1 2
+ 0.161173 0 2 tcp 1040 ------- 0 0.0 5.0 2 3
- 0.169493 0 2 tcp 1040 ------- 0 0.0 5.0 2 3
r 0.179493 0 2 tcp 1040 ------- 0 0.0 5.0 1 2
+ 0.179493 2 3 tcp 1040 ------- 0 0.0 5.0 1 2
- 0.179493 2 3 tcp 1040 ------- 0 0.0 5.0 1 2
r 0.187813 0 2 tcp 1040 ------- 0 0.0 5.0 2 3
+ 0.187813 2 3 tcp 1040 ------- 0 0.0 5.0 2 3
- 0.187813 2 3 tcp 1040 ------- 0 0.0 5.0 2 3
r 0.192267 2 3 tcp 1040 ------- 0 0.0 5.0 1 2
+ 0.192267 3 5 tcp 1040 ------- 0 0.0 5.0 1 2
- 0.192267 3 5 tcp 1040 ------- 0 0.0 5.0 1 2
+ 0.2 1 2 cbr 500 ------- 0 1.0 4.0 0 4
- 0.2 1 2 cbr 500 ------- 0 1.0 4.0 0 4
r 0.200587 2 3 tcp 1040 ------- 0 0.0 5.0 2 3
+ 0.200587 3 5 tcp 1040 ------- 0 0.0 5.0 2 3
- 0.200587 3 5 tcp 1040 ------- 0 0.0 5.0 2 3
+ 0.205 1 2 cbr 500 ------- 0 1.0 4.0 1 5
- 0.205 1 2 cbr 500 ------- 0 1.0 4.0 1 5
r 0.206427 3 5 tcp 1040 ------- 0 0.0 5.0 1 2
+ 0.206427 5 3 ack 40 ------- 0 5.0 0.0 1 6
- 0.206427 5 3 ack 40 ------- 0 5.0 0.0 1 6
+ 0.21 1 2 cbr 500 ------- 0 1.0 4.0 2 7
- 0.21 1 2 cbr 500 ------- 0 1.0 4.0 2 7
r 0.214 1 2 cbr 500 ------- 0 1.0 4.0 0 4
+ 0.214 2 3 cbr 500 ------- 0 1.0 4.0 0 4
- 0.214 2 3 cbr 500 ------- 0 1.0 4.0 0 4
r 0.214747 3 5 tcp 1040 ------- 0 0.0 5.0 2 3
+ 0.214747 5 3 ack 40 ------- 0 5.0 0.0 2 8
- 0.214747 5 3 ack 40 ------- 0 5.0 0.0 2 8
+ 0.215 1 2 cbr 500 ------- 0 1.0 4.0 3 9
- 0.215 1 2 cbr 500 ------- 0 1.0 4.0 3 9
r 0.216587 5 3 ack 40 ------- 0 5.0 0.0 1 6
+ 0.216587 3 2 ack 40 ------- 0 5.0 0.0 1 6
- 0.216587 3 2 ack 40 ------- 0 5.0 0.0 1 6
r 0.219 1 2 cbr 500 ------- 0 1.0 4.0 1 5
+ 0.219 2 3 cbr 500 ------- 0 1.0 4.0 1 5
- 0.219 2 3 cbr 500 ------- 0 1.0 4.0 1 5
+ 0.22 1 2 cbr 500 ------- 0 1.0 4.0 4 10
- 0.22 1 2 cbr 500 ------- 0 1.0 4.0 4 10
r 0.224 1 2 cbr 500 ------- 0 1.0 4.0 2 7
+ 0.224 2 3 cbr 500 ------- 0 1.0 4.0 2 7
- 0.224 2 3 cbr 500 ------- 0 1.0 4.0 2 7
r 0.224907 5 3 ack 40 ------- 0 5.0 0.0 2 8
+ 0.224907 3 2 ack 40 ------- 0 5.0 0.0 2 8
- 0.224907 3 2 ack 40 ------- 0 5.0 0.0 2 8
+ 0.225 1 2 cbr 500 ------- 0 1.0 4.0 5 11
- 0.225 1 2 cbr 500 ------- 0 1.0 4.0 5 11
r 0.225333 2 3 cbr 500 ------- 0 1.0 4.0 0 4
+ 0.225333 3 4 cbr 500 ------- 0 1.0 4.0 0 4
- 0.225333 3 4 cbr 500 ------- 0 1.0 4.0 0 4
r 0.226693 3 2 ack 40 ------- 0 5.0 0.0 1 6
+ 0.226693 2 0 ack 40 ------- 0 5.0 0.0 1 6
- 0.226693 2 0 ack 40 ------- 0 5.0 0.0 1 6
r 0.229 1 2 cbr 500 ------- 0 1.0 4.0 3 9
+ 0.229 2 3 cbr 500 ------- 0 1.0 4.0 3 9
- 0.229 2 3 cbr 500 ------- 0 1.0 4.0 3 9
+ 0.23 1 2 cbr 500 ------- 0 1.0 4.0 6 12
- 0.23 1 2 cbr 500 ------- 0 1.0 4.0 6 12
r 0.230333 2 3 cbr 500 ------- 0 1.0 4.0 1 5
+ 0.230333 3 4 cbr 500 ------- 0 1.0 4.0 1 5
- 0.230333 3 4 cbr 500 ------- 0 1.0 4.0 1 5
r 0.234 1 2 cbr 500 ------- 0 1.0 4.0 4 10
+ 0.234 2 3 cbr 500 ------- 0 1.0 4.0 4 10
- 0.234 2 3 cbr 500 ------- 0 1.0 4.0 4 10
+ 0.235 1 2 cbr 500 ------- 0 1.0 4.0 7 13
- 0.235 1 2 cbr 500 ------- 0 1.0 4.0 7 13
r 0.235013 3 2 ack 40 ------- 0 5.0 0.0 2 8
+ 0.235013 2 0 ack 40 ------- 0 5.0 0.0 2 8
- 0.235013 2 0 ack 40 ------- 0 5.0 0.0 2 8
r 0.235333 2 3 cbr 500 ------- 0 1.0 4.0 2 7
+ 0.235333 3 4 cbr 500 ------- 0 1.0 4.0 2 7
- 0.235333 3 4 cbr 500 ------- 0 1.0 4.0 2 7
r 0.237013 2 0 ack 40 ------- 0 5.0 0.0 1 6
+ 0.237013 0 2 tcp 1040 ------- 0 0.0 5.0 3 14
- 0.237013 0 2 tcp 1040 ------- 0 0.0 5.0 3 14
+ 0.237013 0 2 tcp 1040 ------- 0 0.0 5.0 4 15
r 0.237333 3 4 cbr 500 ------- 0 1.0 4.0 0 4
r 0.239 1 2 cbr 500 ------- 0 1.0 4.0 5 11
+ 0.239 2 3 cbr 500 ------- 0 1.0 4.0 5 11
- 0.239 2 3 cbr 500 ------- 0 1.0 4.0 5 11
+ 0.24 1 2 cbr 500 ------- 0 1.0 4.0 8 16
- 0.24 1 2 cbr 500 ------- 0 1.0 4.0 8 16
r 0.240333 2 3 cbr 500 ------- 0 1.0 4.0 3 9
+ 0.240333 3 4 cbr 500 ------- 0 1.0 4.0 3 9
- 0.240333 3 4 cbr 500 ------- 0 1.0 4.0 3 9
r 0.242333 3 4 cbr 500 ------- 0 1.0 4.0 1 5
r 0.244 1 2 cbr 500 ------- 0 1.0 4.0 6 12
+ 0.244 2 3 cbr 500 ------- 0 1.0 4.0 6 12
- 0.244 2 3 cbr 500 ------- 0 1.0 4.0 6 12
+ 0.245 1 2 cbr 500 ------- 0 1.0 4.0 9 17
- 0.245 1 2 cbr 500 ------- 0 1.0 4.0 9 17
r 0.245333 2 0 ack 40 ------- 0 5.0 0.0 2 8
+ 0.245333 0 2 tcp 1040 ------- 0 0.0 5.0 5 18
+ 0.245333 0 2 tcp 1040 ------- 0 0.0 5.0 6 19
- 0.245333 0 2 tcp 1040 ------- 0 0.0 5.0 4 15
r 0.245333 2 3 cbr 500 ------- 0 1.0 4.0 4 10
+ 0.245333 3 4 cbr 500 ------- 0 1.0 4.0 4 10
- 0.245333 3 4 cbr 500 ------- 0 1.0 4.0 4 10
r 0.247333 3 4 cbr 500 ------- 0 1.0 4.0 2 7
r 0.249 1 2 cbr 500 ------- 0 1.0 4.0 7 13
+ 0.249 2 3 cbr 500 ------- 0 1.0 4.0 7 13
- 0.249 2 3 cbr 500 ------- 0 1.0 4.0 7 13
+ 0.25 1 2 cbr 500 ------- 0 1.0 4.0 10 20
- 0.25 1 2 cbr 500 ------- 0 1.0 4.0 10 20
r 0.250333 2 3 cbr 500 ------- 0 1.0 4.0 5 11
+ 0.250333 3 4 cbr 500 ------- 0 1.0 4.0 5 11
- 0.250333 3 4 cbr 500 ------- 0 1.0 4.0 5 11
r 0.252333 3 4 cbr 500 ------- 0 1.0 4.0 3 9
- 0.253653 0 2 tcp 1040 ------- 0 0.0 5.0 5 18
r 0.254 1 2 cbr 500 ------- 0 1.0 4.0 8 16
+ 0.254 2 3 cbr 500 ------- 0 1.0 4.0 8 16
- 0.254 2 3 cbr 500 ------- 0 1.0 4.0 8 16
+ 0.255 1 2 cbr 500 ------- 0 1.0 4.0 11 21
- 0.255 1 2 cbr 500 ------- 0 1.0 4.0 11 21
r 0.255333 0 2 tcp 1040 ------- 0 0.0 5.0 3 14
+ 0.255333 2 3 tcp 1040 ------- 0 0.0 5.0 3 14
r 0.255333 2 3 cbr 500 ------- 0 1.0 4.0 6 12
+ 0.255333 3 4 cbr 500 ------- 0 1.0 4.0 6 12
- 0.255333 3 4 cbr 500 ------- 0 1.0 4.0 6 12
- 0.255333 2 3 tcp 1040 ------- 0 0.0 5.0 3 14
r 0.257333 3 4 cbr 500 ------- 0 1.0 4.0 4 10
r 0.259 1 2 cbr 500 ------- 0 1.0 4.0 9 17
+ 0.259 2 3 cbr 500 ------- 0 1.0 4.0 9 17
- 0.259 2 3 cbr 500 ------- 0 1.0 4.0 9 17
+ 0.26 1 2 cbr 500 ------- 0 1.0 4.0 12 22
- 0.26 1 2 cbr 500 ------- 0 1.0 4.0 12 22
r 0.260333 2 3 cbr 500 ------- 0 1.0 4.0 7 13
+ 0.260333 3 4 cbr 500 ------- 0 1.0 4.0 7 13
- 0.260333 3 4 cbr 500 ------- 0 1.0 4.0 7 13
- 0.261973 0 2 tcp 1040 ------- 0 0.0 5.0 6 19
r 0.262333 3 4 cbr 500 ------- 0 1.0 4.0 5 11
r 0.263653 0 2 tcp 1040 ------- 0 0.0 5.0 4 15
+ 0.263653 2 3 tcp 1040 ------- 0 0.0 5.0 4 15
- 0.263653 2 3 tcp 1040 ------- 0 0.0 5.0 4 15
r 0.264 1 2 cbr 500 ------- 0 1.0 4.0 10 20
+ 0.264 2 3 cbr 500 ------- 0 1.0 4.0 10 20
+ 0.265 1 2 cbr 500 ------- 0 1.0 4.0 13 23
- 0.265 1 2 cbr 500 ------- 0 1.0 4.0 13 23
r 0.265333 2 3 cbr 500 ------- 0 1.0 4.0 8 16
+ 0.265333 3 4 cbr 500 ------- 0 1.0 4.0 8 16
- 0.265333 3 4 cbr 500 ------- 0 1.0 4.0 8 16
- 0.266427 2 3 cbr 500 ------- 0 1.0 4.0 10 20
r 0.267333 3 4 cbr 500 ------- 0 1.0 4.0 6 12
r 0.268107 2 3 tcp 1040 ------- 0 0.0 5.0 3 14
+ 0.268107 3 5 tcp 1040 ------- 0 0.0 5.0 3 14
- 0.268107 3 5 tcp 1040 ------- 0 0.0 5.0 3 14
r 0.269 1 2 cbr 500 ------- 0 1.0 4.0 11 21
+ 0.269 2 3 cbr 500 ------- 0 1.0 4.0 11 21
- 0.269 2 3 cbr 500 ------- 0 1.0 4.0 11 21
+ 0.27 1 2 cbr 500 ------- 0 1.0 4.0 14 24
- 0.27 1 2 cbr 500 ------- 0 1.0 4.0 14 24
r 0.270333 2 3 cbr 500 ------- 0 1.0 4.0 9 17
+ 0.270333 3 4 cbr 500 ------- 0 1.0 4.0 9 17
- 0.270333 3 4 cbr 500 ------- 0 1.0 4.0 9 17
r 0.271973 0 2 tcp 1040 ------- 0 0.0 5.0 5 18
+ 0.271973 2 3 tcp 1040 ------- 0 0.0 5.0 5 18
- 0.271973 2 3 tcp 1040 ------- 0 0.0 5.0 5 18
r 0.272333 3 4 cbr 500 ------- 0 1.0 4.0 7 13
r 0.274 1 2 cbr 500 ------- 0 1.0 4.0 12 22
+ 0.274 2 3 cbr 500 ------- 0 1.0 4.0 12 22
- 0.274747 2 3 cbr 500 ------- 0 1.0 4.0 12 22
+ 0.275 1 2 cbr 500 ------- 0 1.0 4.0 15 25
- 0.275 1 2 cbr 500 ------- 0 1.0 4.0 15 25
r 0.276427 2 3 tcp 1040 ------- 0 0.0 5.0 4 15
+ 0.276427 3 5 tcp 1040 ------- 0 0.0 5.0 4 15
- 0.276427 3 5 tcp 1040 ------- 0 0.0 5.0 4 15
r 0.277333 3 4 cbr 500 ------- 0 1.0 4.0 8 16
r 0.27776 2 3 cbr 500 ------- 0 1.0 4.0 10 20
+ 0.27776 3 4 cbr 500 ------- 0 1.0 4.0 10 20
- 0.27776 3 4 cbr 500 ------- 0 1.0 4.0 10 20
r 0.279 1 2 cbr 500 ------- 0 1.0 4.0 13 23
+ 0.279 2 3 cbr 500 ------- 0 1.0 4.0 13 23
- 0.279 2 3 cbr 500 ------- 0 1.0 4.0 13 23
+ 0.28 1 2 cbr 500 ------- 0 1.0 4.0 16 26
- 0.28 1 2 cbr 500 ------- 0 1.0 4.0 16 26
r 0.280293 0 2 tcp 1040 ------- 0 0.0 5.0 6 19
+ 0.280293 2 3 tcp 1040 ------- 0 0.0 5.0 6 19
r 0.280333 2 3 cbr 500 ------- 0 1.0 4.0 11 21
+ 0.280333 3 4 cbr 500 ------- 0 1.0 4.0 11 21
- 0.280333 3 4 cbr 500 ------- 0 1.0 4.0 11 21
- 0.280333 2 3 tcp 1040 ------- 0 0.0 5.0 6 19
r 0.282267 3 5 tcp 1040 ------- 0 0.0 5.0 3 14
+ 0.282267 5 3 ack 40 ------- 0 5.0 0.0 3 27
- 0.282267 5 3 ack 40 ------- 0 5.0 0.0 3 27
r 0.282333 3 4 cbr 500 ------- 0 1.0 4.0 9 17
r 0.284 1 2 cbr 500 ------- 0 1.0 4.0 14 24
+ 0.284 2 3 cbr 500 ------- 0 1.0 4.0 14 24
- 0.284 2 3 cbr 500 ------- 0 1.0 4.0 14 24
r 0.284747 2 3 tcp 1040 ------- 0 0.0 5.0 5 18
+ 0.284747 3 5 tcp 1040 ------- 0 0.0 5.0 5 18
- 0.284747 3 5 tcp 1040 ------- 0 0.0 5.0 5 18
+ 0.285 1 2 cbr 500 ------- 0 1.0 4.0 17 28
- 0.285 1 2 cbr 500 ------- 0 1.0 4.0 17 28
r 0.28608 2 3 cbr 500 ------- 0 1.0 4.0 12 22
+ 0.28608 3 4 cbr 500 ------- 0 1.0 4.0 12 22
- 0.28608 3 4 cbr 500 ------- 0 1.0 4.0 12 22
r 0.289 1 2 cbr 500 ------- 0 1.0 4.0 15 25
+ 0.289 2 3 cbr 500 ------- 0 1.0 4.0 15 25
- 0.289 2 3 cbr 500 ------- 0 1.0 4.0 15 25
r 0.28976 3 4 cbr 500 ------- 0 1.0 4.0 10 20
+ 0.29 1 2 cbr 500 ------- 0 1.0 4.0 18 29
- 0.29 1 2 cbr 500 ------- 0 1.0 4.0 18 29
r 0.290333 2 3 cbr 500 ------- 0 1.0 4.0 13 23
+ 0.290333 3 4 cbr 500 ------- 0 1.0 4.0 13 23
- 0.290333 3 4 cbr 500 ------- 0 1.0 4.0 13 23
r 0.290587 3 5 tcp 1040 ------- 0 0.0 5.0 4 15
+ 0.290587 5 3 ack 40 ------- 0 5.0 0.0 4 30
- 0.290587 5 3 ack 40 ------- 0 5.0 0.0 4 30
r 0.292333 3 4 cbr 500 ------- 0 1.0 4.0 11 21
r 0.292427 5 3 ack 40 ------- 0 5.0 0.0 3 27
+ 0.292427 3 2 ack 40 ------- 0 5.0 0.0 3 27
- 0.292427 3 2 ack 40 ------- 0 5.0 0.0 3 27
r 0.293107 2 3 tcp 1040 ------- 0 0.0 5.0 6 19
+ 0.293107 3 5 tcp 1040 ------- 0 0.0 5.0 6 19
- 0.293107 3 5 tcp 1040 ------- 0 0.0 5.0 6 19
r 0.294 1 2 cbr 500 ------- 0 1.0 4.0 16 26
+ 0.294 2 3 cbr 500 ------- 0 1.0 4.0 16 26
- 0.294 2 3 cbr 500 ------- 0 1.0 4.0 16 26
+ 0.295 1 2 cbr 500 ------- 0 1.0 4.0 19 31
- 0.295 1 2 cbr 500 ------- 0 1.0 4.0 19 31
r 0.295333 2 3 cbr 500 ------- 0 1.0 4.0 14 24
+ 0.295333 3 4 cbr 500 ------- 0 1.0 4.0 14 24
- 0.295333 3 4 cbr 500 ------- 0 1.0 4.0 14 24
r 0.29808 3 4 cbr 500 ------- 0 1.0 4.0 12 22
r 0.298907 3 5 tcp 1040 ------- 0 0.0 5.0 5 18
+ 0.298907 5 3 ack 40 ------- 0 5.0 0.0 5 32
- 0.298907 5 3 ack 40 ------- 0 5.0 0.0 5 32
r 0.299 1 2 cbr 500 ------- 0 1.0 4.0 17 28
+ 0.299 2 3 cbr 500 ------- 0 1.0 4.0 17 28
- 0.299 2 3 cbr 500 ------- 0 1.0 4.0 17 28
+ 0.3 1 2 cbr 500 ------- 0 1.0 4.0 20 33
- 0.3 1 2 cbr 500 ------- 0 1.0 4.0 20 33
r 0.300333 2 3 cbr 500 ------- 0 1.0 4.0 15 25
+ 0.300333 3 4 cbr 500 ------- 0 1.0 4.0 15 25
- 0.300333 3 4 cbr 500 ------- 0 1.0 4.0 15 25
r 0.300747 5 3 ack 40 ------- 0 5.0 0.0 4 30
+ 0.300747 3 2 ack 40 ------- 0 5.0 0.0 4 30
- 0.300747 3 2 ack 40 ------- 0 5.0 0.0 4 30
r 0.302333 3 4 cbr 500 ------- 0 1.0 4.0 13 23
r 0.302533 3 2 ack 40 ------- 0 5.0 0.0 3 27
+ 0.302533 2 0 ack 40 ------- 0 5.0 0.0 3 27
- 0.302533 2 0 ack 40 ------- 0 5.0 0.0 3 27
r 0.304 1 2 cbr 500 ------- 0 1.0 4.0 18 29
+ 0.304 2 3 cbr 500 ------- 0 1.0 4.0 18 29
- 0.304 2 3 cbr 500 ------- 0 1.0 4.0 18 29
+ 0.305 1 2 cbr 500 ------- 0 1.0 4.0 21 34
- 0.305 1 2 cbr 500 ------- 0 1.0 4.0 21 34
r 0.305333 2 3 cbr 500 ------- 0 1.0 4.0 16 26
+ 0.305333 3 4 cbr 500 ------- 0 1.0 4.0 16 26
- 0.305333 3 4 cbr 500 ------- 0 1.0 4.0 16 26
r 0.307267 3 5 tcp 1040 ------- 0 0.0 5.0 6 19
+ 0.307267 5 3 ack 40 ------- 0 5.0 0.0 6 35
- 0.307267 5 3 ack 40 ------- 0 5.0 0.0 6 35
r 0.307333 3 4 cbr 500 ------- 0 1.0 4.0 14 24
r 0.309 1 2 cbr 500 ------- 0 1.0 4.0 19 31
+ 0.309 2 3 cbr 500 ------- 0 1.0 4.0 19 31
- 0.309 2 3 cbr 500 ------- 0 1.0 4.0 19 31
r 0.309067 5 3 ack 40 ------- 0 5.0 0.0 5 32
+ 0.309067 3 2 ack 40 ------- 0 5.0 0.0 5 32
- 0.309067 3 2 ack 40 ------- 0 5.0 0.0 5 32
+ 0.31 1 2 cbr 500 ------- 0 1.0 4.0 22 36
- 0.31 1 2 cbr 500 ------- 0 1.0 4.0 22 36
r 0.310333 2 3 cbr 500 ------- 0 1.0 4.0 17 28
+ 0.310333 3 4 cbr 500 ------- 0 1.0 4.0 17 28
- 0.310333 3 4 cbr 500 ------- 0 1.0 4.0 17 28
r 0.310853 3 2 ack 40 ------- 0 5.0 0.0 4 30
+ 0.310853 2 0 ack 40 ------- 0 5.0 0.0 4 30
- 0.310853 2 0 ack 40 ------- 0 5.0 0.0 4 30
r 0.312333 3 4 cbr 500 ------- 0 1.0 4.0 15 25
r 0.312853 2 0 ack 40 ------- 0 5.0 0.0 3 27
+ 0.312853 0 2 tcp 1040 ------- 0 0.0 5.0 7 37
- 0.312853 0 2 tcp 1040 ------- 0 0.0 5.0 7 37
+ 0.312853 0 2 tcp 1040 ------- 0 0.0 5.0 8 38
r 0.314 1 2 cbr 500 ------- 0 1.0 4.0 20 33
+ 0.314 2 3 cbr 500 ------- 0 1.0 4.0 20 33
- 0.314 2 3 cbr 500 ------- 0 1.0 4.0 20 33
+ 0.315 1 2 cbr 500 ------- 0 1.0 4.0 23 39
- 0.315 1 2 cbr 500 ------- 0 1.0 4.0 23 39
r 0.315333 2 3 cbr 500 ------- 0 1.0 4.0 18 29
+ 0.315333 3 4 cbr 500 ------- 0 1.0 4.0 18 29
- 0.315333 3 4 cbr 500 ------- 0 1.0 4.0 18 29
r 0.317333 3 4 cbr 500 ------- 0 1.0 4.0 16 26
r 0.317427 5 3 ack 40 ------- 0 5.0 0.0 6 35
+ 0.317427 3 2 ack 40 ------- 0 5.0 0.0 6 35
- 0.317427 3 2 ack 40 ------- 0 5.0 0.0 6 35
r 0.319 1 2 cbr 500 ------- 0 1.0 4.0 21 34
+ 0.319 2 3 cbr 500 ------- 0 1.0 4.0 21 34
- 0.319 2 3 cbr 500 ------- 0 1.0 4.0 21 34
r 0.319173 3 2 ack 40 ------- 0 5.0 0.0 5 32
+ 0.319173 2 0 ack 40 ------- 0 5.0 0.0 5 32
- 0.319173 2 0 ack 40 ------- 0 5.0 0.0 5 32
+ 0.32 1 2 cbr 500 ------- 0 1.0 4.0 24 40
- 0.32 1 2 cbr 500 ------- 0 1.0 4.0 24 40
r 0.320333 2 3 cbr 500 ------- 0 1.0 4.0 19 31
+ 0.320333 3 4 cbr 500 ------- 0 1.0 4.0 19 31
- 0.320333 3 4 cbr 500 ------- 0 1.0 4.0 19 31
r 0.321173 2 0 ack 40 ------- 0 5.0 0.0 4 30
+ 0.321173 0 2 tcp 1040 ------- 0 0.0 5.0 9 41
+ 0.321173 0 2 tcp 1040 ------- 0 0.0 5.0 10 42
- 0.321173 0 2 tcp 1040 ------- 0 0.0 5.0 8 38
r 0.322333 3 4 cbr 500 ------- 0 1.0 4.0 17 28
r 0.324 1 2 cbr 500 ------- 0 1.0 4.0 22 36
+ 0.324 2 3 cbr 500 ------- 0 1.0 4.0 22 36
- 0.324 2 3 cbr 500 ------- 0 1.0 4.0 22 36
+ 0.325 1 2 cbr 500 ------- 0 1.0 4.0 25 43
- 0.325 1 2 cbr 500 ------- 0 1.0 4.0 25 43
r 0.325333 2 3 cbr 500 ------- 0 1.0 4.0 20 33
+ 0.325333 3 4 cbr 500 ------- 0 1.0 4.0 20 33
- 0.325333 3 4 cbr 500 ------- 0 1.0 4.0 20 33
r 0.327333 3 4 cbr 500 ------- 0 1.0 4.0 18 29
r 0.327533 3 2 ack 40 ------- 0 5.0 0.0 6 35
+ 0.327533 2 0 ack 40 ------- 0 5.0 0.0 6 35
- 0.327533 2 0 ack 40 ------- 0 5.0 0.0 6 35
r 0.329 1 2 cbr 500 ------- 0 1.0 4.0 23 39
+ 0.329 2 3 cbr 500 ------- 0 1.0 4.0 23 39
- 0.329 2 3 cbr 500 ------- 0 1.0 4.0 23 39
r 0.329493 2 0 ack 40 ------- 0 5.0 0.0 5 32
+ 0.329493 0 2 tcp 1040 ------- 0 0.0 5.0 11 44
+ 0.329493 0 2 tcp 1040 ------- 0 0.0 5.0 12 45
- 0.329493 0 2 tcp 1040 ------- 0 0.0 5.0 9 41
+ 0.33 1 2 cbr 500 ------- 0 1.0 4.0 26 46
- 0.33 1 2 cbr 500 ------- 0 1.0 4.0 26 46
r 0.330333 2 3 cbr 500 ------- 0 1.0 4.0 21 34
+ 0.330333 3 4 cbr 500 ------- 0 1.0 4.0 21 34
- 0.330333 3 4 cbr 500 ------- 0 1.0 4.0 21 34
r 0.331173 0 2 tcp 1040 ------- 0 0.0 5.0 7 37
+ 0.331173 2 3 tcp 1040 ------- 0 0.0 5.0 7 37
- 0.331173 2 3 tcp 1040 ------- 0 0.0 5.0 7 37
r 0.332333 3 4 cbr 500 ------- 0 1.0 4.0 19 31
r 0.334 1 2 cbr 500 ------- 0 1.0 4.0 24 40
+ 0.334 2 3 cbr 500 ------- 0 1.0 4.0 24 40
- 0.334 2 3 cbr 500 ------- 0 1.0 4.0 24 40
+ 0.335 1 2 cbr 500 ------- 0 1.0 4.0 27 47
- 0.335 1 2 cbr 500 ------- 0 1.0 4.0 27 47
r 0.335333 2 3 cbr 500 ------- 0 1.0 4.0 22 36
+ 0.335333 3 4 cbr 500 ------- 0 1.0 4.0 22 36
- 0.335333 3 4 cbr 500 ------- 0 1.0 4.0 22 36
r 0.337333 3 4 cbr 500 ------- 0 1.0 4.0 20 33
- 0.337813 0 2 tcp 1040 ------- 0 0.0 5.0 10 42
r 0.337853 2 0 ack 40 ------- 0 5.0 0.0 6 35
+ 0.337853 0 2 tcp 1040 ------- 0 0.0 5.0 13 48
+ 0.337853 0 2 tcp 1040 ------- 0 0.0 5.0 14 49
r 0.339 1 2 cbr 500 ------- 0 1.0 4.0 25 43
+ 0.339 2 3 cbr 500 ------- 0 1.0 4.0 25 43
- 0.339 2 3 cbr 500 ------- 0 1.0 4.0 25 43
r 0.339493 0 2 tcp 1040 ------- 0 0.0 5.0 8 38
+ 0.339493 2 3 tcp 1040 ------- 0 0.0 5.0 8 38
+ 0.34 1 2 cbr 500 ------- 0 1.0 4.0 28 50
- 0.34 1 2 cbr 500 ------- 0 1.0 4.0 28 50
r 0.340333 2 3 cbr 500 ------- 0 1.0 4.0 23 39
+ 0.340333 3 4 cbr 500 ------- 0 1.0 4.0 23 39
- 0.340333 3 4 cbr 500 ------- 0 1.0 4.0 23 39
- 0.340333 2 3 tcp 1040 ------- 0 0.0 5.0 8 38
r 0.342333 3 4 cbr 500 ------- 0 1.0 4.0 21 34
r 0.343947 2 3 tcp 1040 ------- 0 0.0 5.0 7 37
+ 0.343947 3 5 tcp 1040 ------- 0 0.0 5.0 7 37
- 0.343947 3 5 tcp 1040 ------- 0 0.0 5.0 7 37
r 0.344 1 2 cbr 500 ------- 0 1.0 4.0 26 46
+ 0.344 2 3 cbr 500 ------- 0 1.0 4.0 26 46
- 0.344 2 3 cbr 500 ------- 0 1.0 4.0 26 46
+ 0.345 1 2 cbr 500 ------- 0 1.0 4.0 29 51
- 0.345 1 2 cbr 500 ------- 0 1.0 4.0 29 51
r 0.345333 2 3 cbr 500 ------- 0 1.0 4.0 24 40
+ 0.345333 3 4 cbr 500 ------- 0 1.0 4.0 24 40
- 0.345333 3 4 cbr 500 ------- 0 1.0 4.0 24 40
- 0.346133 0 2 tcp 1040 ------- 0 0.0 5.0 11 44
r 0.347333 3 4 cbr 500 ------- 0 1.0 4.0 22 36
r 0.347813 0 2 tcp 1040 ------- 0 0.0 5.0 9 41
+ 0.347813 2 3 tcp 1040 ------- 0 0.0 5.0 9 41
- 0.347813 2 3 tcp 1040 ------- 0 0.0 5.0 9 41
r 0.349 1 2 cbr 500 ------- 0 1.0 4.0 27 47
+ 0.349 2 3 cbr 500 ------- 0 1.0 4.0 27 47
+ 0.35 1 2 cbr 500 ------- 0 1.0 4.0 30 52
- 0.35 1 2 cbr 500 ------- 0 1.0 4.0 30 52
r 0.350333 2 3 cbr 500 ------- 0 1.0 4.0 25 43
+ 0.350333 3 4 cbr 500 ------- 0 1.0 4.0 25 43
- 0.350333 3 4 cbr 500 ------- 0 1.0 4.0 25 43
- 0.350587 2 3 cbr 500 ------- 0 1.0 4.0 27 47
r 0.352333 3 4 cbr 500 ------- 0 1.0 4.0 23 39
r 0.353107 2 3 tcp 1040 ------- 0 0.0 5.0 8 38
+ 0.353107 3 5 tcp 1040 ------- 0 0.0 5.0 8 38
- 0.353107 3 5 tcp 1040 ------- 0 0.0 5.0 8 38
r 0.354 1 2 cbr 500 ------- 0 1.0 4.0 28 50
+ 0.354 2 3 cbr 500 ------- 0 1.0 4.0 28 50
- 0.354 2 3 cbr 500 ------- 0 1.0 4.0 28 50
- 0.354453 0 2 tcp 1040 ------- 0 0.0 5.0 12 45
+ 0.355 1 2 cbr 500 ------- 0 1.0 4.0 31 53
- 0.355 1 2 cbr 500 ------- 0 1.0 4.0 31 53
r 0.355333 2 3 cbr 500 ------- 0 1.0 4.0 26 46
+ 0.355333 3 4 cbr 500 ------- 0 1.0 4.0 26 46
- 0.355333 3 4 cbr 500 ------- 0 1.0 4.0 26 46
r 0.356133 0 2 tcp 1040 ------- 0 0.0 5.0 10 42
+ 0.356133 2 3 tcp 1040 ------- 0 0.0 5.0 10 42
- 0.356133 2 3 tcp 1040 ------- 0 0.0 5.0 10 42
r 0.357333 3 4 cbr 500 ------- 0 1.0 4.0 24 40
r 0.358107 3 5 tcp 1040 ------- 0 0.0 5.0 7 37
+ 0.358107 5 3 ack 40 ------- 0 5.0 0.0 7 54
- 0.358107 5 3 ack 40 ------- 0 5.0 0.0 7 54
r 0.359 1 2 cbr 500 ------- 0 1.0 4.0 29 51
+ 0.359 2 3 cbr 500 ------- 0 1.0 4.0 29 51
- 0.359 2 3 cbr 500 ------- 0 1.0 4.0 29 51
+ 0.36 1 2 cbr 500 ------- 0 1.0 4.0 32 55
- 0.36 1 2 cbr 500 ------- 0 1.0 4.0 32 55
r 0.360587 2 3 tcp 1040 ------- 0 0.0 5.0 9 41
+ 0.360587 3 5 tcp 1040 ------- 0 0.0 5.0 9 41
- 0.360587 3 5 tcp 1040 ------- 0 0.0 5.0 9 41
r 0.36192 2 3 cbr 500 ------- 0 1.0 4.0 27 47
+ 0.36192 3 4 cbr 500 ------- 0 1.0 4.0 27 47
- 0.36192 3 4 cbr 500 ------- 0 1.0 4.0 27 47
r 0.362333 3 4 cbr 500 ------- 0 1.0 4.0 25 43
- 0.362773 0 2 tcp 1040 ------- 0 0.0 5.0 13 48
r 0.364 1 2 cbr 500 ------- 0 1.0 4.0 30 52
+ 0.364 2 3 cbr 500 ------- 0 1.0 4.0 30 52
- 0.364 2 3 cbr 500 ------- 0 1.0 4.0 30 52
r 0.364453 0 2 tcp 1040 ------- 0 0.0 5.0 11 44
+ 0.364453 2 3 tcp 1040 ------- 0 0.0 5.0 11 44
+ 0.365 1 2 cbr 500 ------- 0 1.0 4.0 33 56
- 0.365 1 2 cbr 500 ------- 0 1.0 4.0 33 56
r 0.365333 2 3 cbr 500 ------- 0 1.0 4.0 28 50
+ 0.365333 3 4 cbr 500 ------- 0 1.0 4.0 28 50
- 0.365333 3 4 cbr 500 ------- 0 1.0 4.0 28 50
- 0.365333 2 3 tcp 1040 ------- 0 0.0 5.0 11 44
r 0.367267 3 5 tcp 1040 ------- 0 0.0 5.0 8 38
+ 0.367267 5 3 ack 40 ------- 0 5.0 0.0 8 57
- 0.367267 5 3 ack 40 ------- 0 5.0 0.0 8 57
r 0.367333 3 4 cbr 500 ------- 0 1.0 4.0 26 46
r 0.368267 5 3 ack 40 ------- 0 5.0 0.0 7 54
+ 0.368267 3 2 ack 40 ------- 0 5.0 0.0 7 54
- 0.368267 3 2 ack 40 ------- 0 5.0 0.0 7 54
r 0.368907 2 3 tcp 1040 ------- 0 0.0 5.0 10 42
+ 0.368907 3 5 tcp 1040 ------- 0 0.0 5.0 10 42
- 0.368907 3 5 tcp 1040 ------- 0 0.0 5.0 10 42
r 0.369 1 2 cbr 500 ------- 0 1.0 4.0 31 53
+ 0.369 2 3 cbr 500 ------- 0 1.0 4.0 31 53
- 0.369 2 3 cbr 500 ------- 0 1.0 4.0 31 53
+ 0.37 1 2 cbr 500 ------- 0 1.0 4.0 34 58
- 0.37 1 2 cbr 500 ------- 0 1.0 4.0 34 58
r 0.370333 2 3 cbr 500 ------- 0 1.0 4.0 29 51
+ 0.370333 3 4 cbr 500 ------- 0 1.0 4.0 29 51
- 0.370333 3 4 cbr 500 ------- 0 1.0 4.0 29 51
- 0.371093 0 2 tcp 1040 ------- 0 0.0 5.0 14 49
r 0.372773 0 2 tcp 1040 ------- 0 0.0 5.0 12 45
+ 0.372773 2 3 tcp 1040 ------- 0 0.0 5.0 12 45
- 0.372773 2 3 tcp 1040 ------- 0 0.0 5.0 12 45
r 0.37392 3 4 cbr 500 ------- 0 1.0 4.0 27 47
r 0.374 1 2 cbr 500 ------- 0 1.0 4.0 32 55
+ 0.374 2 3 cbr 500 ------- 0 1.0 4.0 32 55
r 0.374747 3 5 tcp 1040 ------- 0 0.0 5.0 9 41
+ 0.374747 5 3 ack 40 ------- 0 5.0 0.0 9 59
- 0.374747 5 3 ack 40 ------- 0 5.0 0.0 9 59
+ 0.375 1 2 cbr 500 ------- 0 1.0 4.0 35 60
- 0.375 1 2 cbr 500 ------- 0 1.0 4.0 35 60
r 0.375333 2 3 cbr 500 ------- 0 1.0 4.0 30 52
+ 0.375333 3 4 cbr 500 ------- 0 1.0 4.0 30 52
- 0.375333 3 4 cbr 500 ------- 0 1.0 4.0 30 52
- 0.375547 2 3 cbr 500 ------- 0 1.0 4.0 32 55
r 0.377333 3 4 cbr 500 ------- 0 1.0 4.0 28 50
r 0.377427 5 3 ack 40 ------- 0 5.0 0.0 8 57
+ 0.377427 3 2 ack 40 ------- 0 5.0 0.0 8 57
- 0.377427 3 2 ack 40 ------- 0 5.0 0.0 8 57
r 0.378107 2 3 tcp 1040 ------- 0 0.0 5.0 11 44
+ 0.378107 3 5 tcp 1040 ------- 0 0.0 5.0 11 44
- 0.378107 3 5 tcp 1040 ------- 0 0.0 5.0 11 44
r 0.378373 3 2 ack 40 ------- 0 5.0 0.0 7 54
+ 0.378373 2 0 ack 40 ------- 0 5.0 0.0 7 54
- 0.378373 2 0 ack 40 ------- 0 5.0 0.0 7 54
r 0.379 1 2 cbr 500 ------- 0 1.0 4.0 33 56
+ 0.379 2 3 cbr 500 ------- 0 1.0 4.0 33 56
- 0.379 2 3 cbr 500 ------- 0 1.0 4.0 33 56
+ 0.38 1 2 cbr 500 ------- 0 1.0 4.0 36 61
- 0.38 1 2 cbr 500 ------- 0 1.0 4.0 36 61
r 0.380333 2 3 cbr 500 ------- 0 1.0 4.0 31 53
+ 0.380333 3 4 cbr 500 ------- 0 1.0 4.0 31 53
- 0.380333 3 4 cbr 500 ------- 0 1.0 4.0 31 53
r 0.381093 0 2 tcp 1040 ------- 0 0.0 5.0 13 48
+ 0.381093 2 3 tcp 1040 ------- 0 0.0 5.0 13 48
- 0.381093 2 3 tcp 1040 ------- 0 0.0 5.0 13 48
r 0.382333 3 4 cbr 500 ------- 0 1.0 4.0 29 51
r 0.383067 3 5 tcp 1040 ------- 0 0.0 5.0 10 42
+ 0.383067 5 3 ack 40 ------- 0 5.0 0.0 10 62
- 0.383067 5 3 ack 40 ------- 0 5.0 0.0 10 62
r 0.384 1 2 cbr 500 ------- 0 1.0 4.0 34 58
+ 0.384 2 3 cbr 500 ------- 0 1.0 4.0 34 58
- 0.384 2 3 cbr 500 ------- 0 1.0 4.0 34 58
r 0.384907 5 3 ack 40 ------- 0 5.0 0.0 9 59
+ 0.384907 3 2 ack 40 ------- 0 5.0 0.0 9 59
- 0.384907 3 2 ack 40 ------- 0 5.0 0.0 9 59
+ 0.385 1 2 cbr 500 ------- 0 1.0 4.0 37 63
- 0.385 1 2 cbr 500 ------- 0 1.0 4.0 37 63
r 0.385547 2 3 tcp 1040 ------- 0 0.0 5.0 12 45
+ 0.385547 3 5 tcp 1040 ------- 0 0.0 5.0 12 45
- 0.385547 3 5 tcp 1040 ------- 0 0.0 5.0 12 45
r 0.38688 2 3 cbr 500 ------- 0 1.0 4.0 32 55
+ 0.38688 3 4 cbr 500 ------- 0 1.0 4.0 32 55
- 0.38688 3 4 cbr 500 ------- 0 1.0 4.0 32 55
r 0.387333 3 4 cbr 500 ------- 0 1.0 4.0 30 52
r 0.387533 3 2 ack 40 ------- 0 5.0 0.0 8 57
+ 0.387533 2 0 ack 40 ------- 0 5.0 0.0 8 57
- 0.387533 2 0 ack 40 ------- 0 5.0 0.0 8 57
r 0.388693 2 0 ack 40 ------- 0 5.0 0.0 7 54
+ 0.388693 0 2 tcp 1040 ------- 0 0.0 5.0 15 64
- 0.388693 0 2 tcp 1040 ------- 0 0.0 5.0 15 64
+ 0.388693 0 2 tcp 1040 ------- 0 0.0 5.0 16 65
r 0.389 1 2 cbr 500 ------- 0 1.0 4.0 35 60
+ 0.389 2 3 cbr 500 ------- 0 1.0 4.0 35 60
- 0.389 2 3 cbr 500 ------- 0 1.0 4.0 35 60
r 0.389413 0 2 tcp 1040 ------- 0 0.0 5.0 14 49
+ 0.389413 2 3 tcp 1040 ------- 0 0.0 5.0 14 49
+ 0.39 1 2 cbr 500 ------- 0 1.0 4.0 38 66
- 0.39 1 2 cbr 500 ------- 0 1.0 4.0 38 66
r 0.390333 2 3 cbr 500 ------- 0 1.0 4.0 33 56
+ 0.390333 3 4 cbr 500 ------- 0 1.0 4.0 33 56
- 0.390333 3 4 cbr 500 ------- 0 1.0 4.0 33 56
- 0.390333 2 3 tcp 1040 ------- 0 0.0 5.0 14 49
r 0.392267 3 5 tcp 1040 ------- 0 0.0 5.0 11 44
+ 0.392267 5 3 ack 40 ------- 0 5.0 0.0 11 67
- 0.392267 5 3 ack 40 ------- 0 5.0 0.0 11 67
r 0.392333 3 4 cbr 500 ------- 0 1.0 4.0 31 53
r 0.393227 5 3 ack 40 ------- 0 5.0 0.0 10 62
+ 0.393227 3 2 ack 40 ------- 0 5.0 0.0 10 62
- 0.393227 3 2 ack 40 ------- 0 5.0 0.0 10 62
r 0.393867 2 3 tcp 1040 ------- 0 0.0 5.0 13 48
+ 0.393867 3 5 tcp 1040 ------- 0 0.0 5.0 13 48
- 0.393867 3 5 tcp 1040 ------- 0 0.0 5.0 13 48
r 0.394 1 2 cbr 500 ------- 0 1.0 4.0 36 61
+ 0.394 2 3 cbr 500 ------- 0 1.0 4.0 36 61
- 0.394 2 3 cbr 500 ------- 0 1.0 4.0 36 61
+ 0.395 1 2 cbr 500 ------- 0 1.0 4.0 39 68
- 0.395 1 2 cbr 500 ------- 0 1.0 4.0 39 68
r 0.395013 3 2 ack 40 ------- 0 5.0 0.0 9 59
+ 0.395013 2 0 ack 40 ------- 0 5.0 0.0 9 59
- 0.395013 2 0 ack 40 ------- 0 5.0 0.0 9 59
r 0.395333 2 3 cbr 500 ------- 0 1.0 4.0 34 58
+ 0.395333 3 4 cbr 500 ------- 0 1.0 4.0 34 58
- 0.395333 3 4 cbr 500 ------- 0 1.0 4.0 34 58
- 0.397013 0 2 tcp 1040 ------- 0 0.0 5.0 16 65
r 0.397853 2 0 ack 40 ------- 0 5.0 0.0 8 57
+ 0.397853 0 2 tcp 1040 ------- 0 0.0 5.0 17 69
+ 0.397853 0 2 tcp 1040 ------- 0 0.0 5.0 18 70
r 0.39888 3 4 cbr 500 ------- 0 1.0 4.0 32 55
r 0.399 1 2 cbr 500 ------- 0 1.0 4.0 37 63
+ 0.399 2 3 cbr 500 ------- 0 1.0 4.0 37 63
- 0.399 2 3 cbr 500 ------- 0 1.0 4.0 37 63
r 0.399707 3 5 tcp 1040 ------- 0 0.0 5.0 12 45
+ 0.399707 5 3 ack 40 ------- 0 5.0 0.0 12 71
- 0.399707 5 3 ack 40 ------- 0 5.0 0.0 12 71
+ 0.4 1 2 cbr 500 ------- 0 1.0 4.0 40 72
- 0.4 1 2 cbr 500 ------- 0 1.0 4.0 40 72
r 0.400333 2 3 cbr 500 ------- 0 1.0 4.0 35 60
+ 0.400333 3 4 cbr 500 ------- 0 1.0 4.0 35 60
- 0.400333 3 4 cbr 500 ------- 0 1.0 4.0 35 60
r 0.402333 3 4 cbr 500 ------- 0 1.0 4.0 33 56
r 0.402427 5 3 ack 40 ------- 0 5.0 0.0 11 67
+ 0.402427 3 2 ack 40 ------- 0 5.0 0.0 11 67
- 0.402427 3 2 ack 40 ------- 0 5.0 0.0 11 67
r 0.403107 2 3 tcp 1040 ------- 0 0.0 5.0 14 49
+ 0.403107 3 5 tcp 1040 ------- 0 0.0 5.0 14 49
- 0.403107 3 5 tcp 1040 ------- 0 0.0 5.0 14 49
r 0.403333 3 2 ack 40 ------- 0 5.0 0.0 10 62
+ 0.403333 2 0 ack 40 ------- 0 5.0 0.0 10 62
- 0.403333 2 0 ack 40 ------- 0 5.0 0.0 10 62
r 0.404 1 2 cbr 500 ------- 0 1.0 4.0 38 66
+ 0.404 2 3 cbr 500 ------- 0 1.0 4.0 38 66
- 0.404 2 3 cbr 500 ------- 0 1.0 4.0 38 66
+ 0.405 1 2 cbr 500 ------- 0 1.0 4.0 41 73
- 0.405 1 2 cbr 500 ------- 0 1.0 4.0 41 73
r 0.405333 2 0 ack 40 ------- 0 5.0 0.0 9 59
+ 0.405333 0 2 tcp 1040 ------- 0 0.0 5.0 19 74
+ 0.405333 0 2 tcp 1040 ------- 0 0.0 5.0 20 75
- 0.405333 0 2 tcp 1040 ------- 0 0.0 5.0 17 69
r 0.405333 2 3 cbr 500 ------- 0 1.0 4.0 36 61
+ 0.405333 3 4 cbr 500 ------- 0 1.0 4.0 36 61
- 0.405333 3 4 cbr 500 ------- 0 1.0 4.0 36 61
r 0.407013 0 2 tcp 1040 ------- 0 0.0 5.0 15 64
+ 0.407013 2 3 tcp 1040 ------- 0 0.0 5.0 15 64
- 0.407013 2 3 tcp 1040 ------- 0 0.0 5.0 15 64
r 0.407333 3 4 cbr 500 ------- 0 1.0 4.0 34 58
r 0.408027 3 5 tcp 1040 ------- 0 0.0 5.0 13 48
+ 0.408027 5 3 ack 40 ------- 0 5.0 0.0 13 76
- 0.408027 5 3 ack 40 ------- 0 5.0 0.0 13 76
r 0.409 1 2 cbr 500 ------- 0 1.0 4.0 39 68
+ 0.409 2 3 cbr 500 ------- 0 1.0 4.0 39 68
- 0.409787 2 3 cbr 500 ------- 0 1.0 4.0 39 68
r 0.409867 5 3 ack 40 ------- 0 5.0 0.0 12 71
+ 0.409867 3 2 ack 40 ------- 0 5.0 0.0 12 71
- 0.409867 3 2 ack 40 ------- 0 5.0 0.0 12 71
+ 0.41 1 2 cbr 500 ------- 0 1.0 4.0 42 77
- 0.41 1 2 cbr 500 ------- 0 1.0 4.0 42 77
r 0.410333 2 3 cbr 500 ------- 0 1.0 4.0 37 63
+ 0.410333 3 4 cbr 500 ------- 0 1.0 4.0 37 63
- 0.410333 3 4 cbr 500 ------- 0 1.0 4.0 37 63
r 0.412333 3 4 cbr 500 ------- 0 1.0 4.0 35 60
r 0.412533 3 2 ack 40 ------- 0 5.0 0.0 11 67
+ 0.412533 2 0 ack 40 ------- 0 5.0 0.0 11 67
- 0.412533 2 0 ack 40 ------- 0 5.0 0.0 11 67
r 0.413653 2 0 ack 40 ------- 0 5.0 0.0 10 62
+ 0.413653 0 2 tcp 1040 ------- 0 0.0 5.0 21 78
+ 0.413653 0 2 tcp 1040 ------- 0 0.0 5.0 22 79
- 0.413653 0 2 tcp 1040 ------- 0 0.0 5.0 18 70
r 0.414 1 2 cbr 500 ------- 0 1.0 4.0 40 72
+ 0.414 2 3 cbr 500 ------- 0 1.0 4.0 40 72
- 0.414 2 3 cbr 500 ------- 0 1.0 4.0 40 72
+ 0.415 1 2 cbr 500 ------- 0 1.0 4.0 43 80
- 0.415 1 2 cbr 500 ------- 0 1.0 4.0 43 80
r 0.415333 0 2 tcp 1040 ------- 0 0.0 5.0 16 65
+ 0.415333 2 3 tcp 1040 ------- 0 0.0 5.0 16 65
r 0.415333 2 3 cbr 500 ------- 0 1.0 4.0 38 66
+ 0.415333 3 4 cbr 500 ------- 0 1.0 4.0 38 66
- 0.415333 3 4 cbr 500 ------- 0 1.0 4.0 38 66
- 0.415333 2 3 tcp 1040 ------- 0 0.0 5.0 16 65
r 0.417267 3 5 tcp 1040 ------- 0 0.0 5.0 14 49
+ 0.417267 5 3 ack 40 ------- 0 5.0 0.0 14 81
- 0.417267 5 3 ack 40 ------- 0 5.0 0.0 14 81
r 0.417333 3 4 cbr 500 ------- 0 1.0 4.0 36 61
r 0.418187 5 3 ack 40 ------- 0 5.0 0.0 13 76
+ 0.418187 3 2 ack 40 ------- 0 5.0 0.0 13 76
- 0.418187 3 2 ack 40 ------- 0 5.0 0.0 13 76
r 0.419 1 2 cbr 500 ------- 0 1.0 4.0 41 73
+ 0.419 2 3 cbr 500 ------- 0 1.0 4.0 41 73
- 0.419 2 3 cbr 500 ------- 0 1.0 4.0 41 73
r 0.419787 2 3 tcp 1040 ------- 0 0.0 5.0 15 64
+ 0.419787 3 5 tcp 1040 ------- 0 0.0 5.0 15 64
- 0.419787 3 5 tcp 1040 ------- 0 0.0 5.0 15 64
r 0.419973 3 2 ack 40 ------- 0 5.0 0.0 12 71
+ 0.419973 2 0 ack 40 ------- 0 5.0 0.0 12 71
- 0.419973 2 0 ack 40 ------- 0 5.0 0.0 12 71
+ 0.42 1 2 cbr 500 ------- 0 1.0 4.0 44 82
- 0.42 1 2 cbr 500 ------- 0 1.0 4.0 44 82
r 0.42112 2 3 cbr 500 ------- 0 1.0 4.0 39 68
+ 0.42112 3 4 cbr 500 ------- 0 1.0 4.0 39 68
- 0.42112 3 4 cbr 500 ------- 0 1.0 4.0 39 68
- 0.421973 0 2 tcp 1040 ------- 0 0.0 5.0 19 74
r 0.422333 3 4 cbr 500 ------- 0 1.0 4.0 37 63
r 0.422853 2 0 ack 40 ------- 0 5.0 0.0 11 67
+ 0.422853 0 2 tcp 1040 ------- 0 0.0 5.0 23 83
+ 0.422853 0 2 tcp 1040 ------- 0 0.0 5.0 24 84
r 0.423653 0 2 tcp 1040 ------- 0 0.0 5.0 17 69
+ 0.423653 2 3 tcp 1040 ------- 0 0.0 5.0 17 69
- 0.423653 2 3 tcp 1040 ------- 0 0.0 5.0 17 69
r 0.424 1 2 cbr 500 ------- 0 1.0 4.0 42 77